<?xml version="1.0" encoding="ISO-8859-1"?>
<modeling>
 <generator>
  <i name="program" type="string">vasp </i>
  <i name="version" type="string">6.1.0  </i>
  <i name="subversion" type="string">28Jan20 (build Mar 23 2020 15:34:42) complex                          parallel </i>
  <i name="platform" type="string">LinuxIFC </i>
  <i name="date" type="string">2022 02 17 </i>
  <i name="time" type="string">15:03:28 </i>
 </generator>
 <incar>
  <i type="string" name="PREC"> Low</i>
  <i type="string" name="ALGO"> VeryFast</i>
  <i type="int" name="IBRION">     0</i>
  <i type="int" name="NSW">    50</i>
  <i type="int" name="ISIF">     2</i>
  <i type="int" name="ISYM">     0</i>
  <i name="POTIM">      1.00000000</i>
  <i name="TEBEG">    300.00000000</i>
  <i name="SMASS">      1.00000000</i>
  <i type="string" name="LREAL"> Auto</i>
  <i type="int" name="ISMEAR">     0</i>
  <i name="SIGMA">      0.10000000</i>
  <i type="int" name="MDALGO">     2</i>
  <i type="int" name="NCORE">     2</i>
  <i type="string" name="ALGO"> VeryFast</i>
 </incar>
 <structure name="primitive_cell" >
  <crystal>
   <varray name="basis" >
    <v>      10.86180000       0.00000000       0.00000000 </v>
    <v>       0.00000000      10.86180000       0.00000000 </v>
    <v>       0.00000000       0.00000000      10.86180000 </v>
   </varray>
   <i name="volume">   1281.46103541 </i>
   <varray name="rec_basis" >
    <v>       0.09206577       0.00000000       0.00000000 </v>
    <v>       0.00000000       0.09206577       0.00000000 </v>
    <v>       0.00000000       0.00000000       0.09206577 </v>
   </varray>
  </crystal>
  <varray name="positions" >
   <v>       0.00000000       0.00000000       0.00000000 </v>
   <v>       0.50000000       0.00000000       0.00000000 </v>
   <v>       0.00000000       0.50000000       0.00000000 </v>
   <v>       0.50000000       0.50000000       0.00000000 </v>
   <v>       0.00000000       0.00000000       0.50000000 </v>
   <v>       0.50000000       0.00000000       0.50000000 </v>
   <v>       0.00000000       0.50000000       0.50000000 </v>
   <v>       0.50000000       0.50000000       0.50000000 </v>
   <v>       0.37500000       0.12500000       0.37500000 </v>
   <v>       0.87500000       0.12500000       0.37500000 </v>
   <v>       0.37500000       0.62500000       0.37500000 </v>
   <v>       0.87500000       0.62500000       0.37500000 </v>
   <v>       0.37500000       0.12500000       0.87500000 </v>
   <v>       0.87500000       0.12500000       0.87500000 </v>
   <v>       0.37500000       0.62500000       0.87500000 </v>
   <v>       0.87500000       0.62500000       0.87500000 </v>
   <v>       0.00000000       0.25000000       0.25000000 </v>
   <v>       0.50000000       0.25000000       0.25000000 </v>
   <v>       0.00000000       0.75000000       0.25000000 </v>
   <v>       0.50000000       0.75000000       0.25000000 </v>
   <v>       0.00000000       0.25000000       0.75000000 </v>
   <v>       0.50000000       0.25000000       0.75000000 </v>
   <v>       0.00000000       0.75000000       0.75000000 </v>
   <v>       0.50000000       0.75000000       0.75000000 </v>
   <v>       0.37500000       0.37500000       0.12500000 </v>
   <v>       0.87500000       0.37500000       0.12500000 </v>
   <v>       0.37500000       0.87500000       0.12500000 </v>
   <v>       0.87500000       0.87500000       0.12500000 </v>
   <v>       0.37500000       0.37500000       0.62500000 </v>
   <v>       0.87500000       0.37500000       0.62500000 </v>
   <v>       0.37500000       0.87500000       0.62500000 </v>
   <v>       0.87500000       0.87500000       0.62500000 </v>
   <v>       0.25000000       0.00000000       0.25000000 </v>
   <v>       0.75000000       0.00000000       0.25000000 </v>
   <v>       0.25000000       0.50000000       0.25000000 </v>
   <v>       0.75000000       0.50000000       0.25000000 </v>
   <v>       0.25000000       0.00000000       0.75000000 </v>
   <v>       0.75000000       0.00000000       0.75000000 </v>
   <v>       0.25000000       0.50000000       0.75000000 </v>
   <v>       0.75000000       0.50000000       0.75000000 </v>
   <v>       0.12500000       0.12500000       0.12500000 </v>
   <v>       0.62500000       0.12500000       0.12500000 </v>
   <v>       0.12500000       0.62500000       0.12500000 </v>
   <v>       0.62500000       0.62500000       0.12500000 </v>
   <v>       0.12500000       0.12500000       0.62500000 </v>
   <v>       0.62500000       0.12500000       0.62500000 </v>
   <v>       0.12500000       0.62500000       0.62500000 </v>
   <v>       0.62500000       0.62500000       0.62500000 </v>
   <v>       0.25000000       0.25000000       0.00000000 </v>
   <v>       0.75000000       0.25000000       0.00000000 </v>
   <v>       0.25000000       0.75000000       0.00000000 </v>
   <v>       0.75000000       0.75000000       0.00000000 </v>
   <v>       0.25000000       0.25000000       0.50000000 </v>
   <v>       0.75000000       0.25000000       0.50000000 </v>
   <v>       0.25000000       0.75000000       0.50000000 </v>
   <v>       0.75000000       0.75000000       0.50000000 </v>
   <v>       0.12500000       0.37500000       0.37500000 </v>
   <v>       0.62500000       0.37500000       0.37500000 </v>
   <v>       0.12500000       0.87500000       0.37500000 </v>
   <v>       0.62500000       0.87500000       0.37500000 </v>
   <v>       0.12500000       0.37500000       0.87500000 </v>
   <v>       0.62500000       0.37500000       0.87500000 </v>
   <v>       0.12500000       0.87500000       0.87500000 </v>
   <v>       0.62500000       0.87500000       0.87500000 </v>
  </varray>
 </structure>
 <varray name="primitive_index" >
  <v type="int" >        1 </v>
  <v type="int" >        2 </v>
  <v type="int" >        3 </v>
  <v type="int" >        4 </v>
  <v type="int" >        5 </v>
  <v type="int" >        6 </v>
  <v type="int" >        7 </v>
  <v type="int" >        8 </v>
  <v type="int" >        9 </v>
  <v type="int" >       10 </v>
  <v type="int" >       11 </v>
  <v type="int" >       12 </v>
  <v type="int" >       13 </v>
  <v type="int" >       14 </v>
  <v type="int" >       15 </v>
  <v type="int" >       16 </v>
  <v type="int" >       17 </v>
  <v type="int" >       18 </v>
  <v type="int" >       19 </v>
  <v type="int" >       20 </v>
  <v type="int" >       21 </v>
  <v type="int" >       22 </v>
  <v type="int" >       23 </v>
  <v type="int" >       24 </v>
  <v type="int" >       25 </v>
  <v type="int" >       26 </v>
  <v type="int" >       27 </v>
  <v type="int" >       28 </v>
  <v type="int" >       29 </v>
  <v type="int" >       30 </v>
  <v type="int" >       31 </v>
  <v type="int" >       32 </v>
  <v type="int" >       33 </v>
  <v type="int" >       34 </v>
  <v type="int" >       35 </v>
  <v type="int" >       36 </v>
  <v type="int" >       37 </v>
  <v type="int" >       38 </v>
  <v type="int" >       39 </v>
  <v type="int" >       40 </v>
  <v type="int" >       41 </v>
  <v type="int" >       42 </v>
  <v type="int" >       43 </v>
  <v type="int" >       44 </v>
  <v type="int" >       45 </v>
  <v type="int" >       46 </v>
  <v type="int" >       47 </v>
  <v type="int" >       48 </v>
  <v type="int" >       49 </v>
  <v type="int" >       50 </v>
  <v type="int" >       51 </v>
  <v type="int" >       52 </v>
  <v type="int" >       53 </v>
  <v type="int" >       54 </v>
  <v type="int" >       55 </v>
  <v type="int" >       56 </v>
  <v type="int" >       57 </v>
  <v type="int" >       58 </v>
  <v type="int" >       59 </v>
  <v type="int" >       60 </v>
  <v type="int" >       61 </v>
  <v type="int" >       62 </v>
  <v type="int" >       63 </v>
  <v type="int" >       64 </v>
 </varray>
 <kpoints>
  <generation param="Monkhorst-Pack">
   <v type="int" name="divisions">       1        1        1 </v>
   <v name="usershift">      0.00000000       0.00000000       0.00000000 </v>
   <v name="genvec1">      1.00000000       0.00000000       0.00000000 </v>
   <v name="genvec2">      0.00000000       1.00000000       0.00000000 </v>
   <v name="genvec3">      0.00000000       0.00000000       1.00000000 </v>
   <v name="shift">      0.00000000       0.00000000       0.00000000 </v>
  </generation>
  <varray name="kpointlist" >
   <v>       0.00000000       0.00000000       0.00000000 </v>
  </varray>
  <varray name="weights" >
   <v>       1.00000000 </v>
  </varray>
 </kpoints>
 <parameters>
  <separator name="general" >
   <i type="string" name="SYSTEM">unknown system</i>
   <i type="logical" name="LCOMPAT"> F  </i>
  </separator>
  <separator name="electronic" >
   <i type="string" name="PREC">low</i>
   <i name="ENMAX">    112.90800000</i>
   <i name="ENAUG">    241.94500000</i>
   <i name="EDIFF">      0.00010000</i>
   <i type="int" name="IALGO">    48</i>
   <i type="int" name="IWAVPR">    12</i>
   <i type="int" name="NBANDS">   192</i>
   <i type="int" name="NBANDSLOW">    -1</i>
   <i type="int" name="NBANDSHIGH">    -1</i>
   <i name="NELECT">    256.00000000</i>
   <i type="int" name="TURBO">     0</i>
   <i type="int" name="IRESTART">     0</i>
   <i type="int" name="NREBOOT">     0</i>
   <i type="int" name="NMIN">     0</i>
   <i name="EREF">      0.00000000</i>
   <separator name="electronic smearing" >
    <i type="int" name="ISMEAR">     0</i>
    <i name="SIGMA">      0.10000000</i>
    <i name="KSPACING">      0.50000000</i>
    <i type="logical" name="KGAMMA"> T  </i>
    <i type="logical" name="KBLOWUP"> T  </i>
   </separator>
   <separator name="electronic projectors" >
    <i type="logical" name="LREAL"> T  </i>
    <v name="ROPT">     -0.01000000</v>
    <i type="int" name="LMAXPAW">  -100</i>
    <i type="int" name="LMAXMIX">     2</i>
    <i type="logical" name="NLSPLINE"> F  </i>
   </separator>
   <separator name="electronic startup" >
    <i type="int" name="ISTART">     1</i>
    <i type="int" name="ICHARG">     0</i>
    <i type="int" name="INIWAV">     1</i>
   </separator>
   <separator name="electronic spin" >
    <i type="int" name="ISPIN">     1</i>
    <i type="logical" name="LNONCOLLINEAR"> F  </i>
    <v name="MAGMOM">      1.00000000      1.00000000      1.00000000      1.00000000      1.00000000      1.00000000      1.00000000      1.00000000      1.00000000      1.00000000      1.00000000      1.00000000      1.00000000      1.00000000      1.00000000      1.00000000      1.00000000      1.00000000      1.00000000      1.00000000
      1.00000000      1.00000000      1.00000000      1.00000000      1.00000000      1.00000000      1.00000000      1.00000000      1.00000000      1.00000000      1.00000000      1.00000000      1.00000000      1.00000000      1.00000000      1.00000000      1.00000000      1.00000000      1.00000000      1.00000000
      1.00000000      1.00000000      1.00000000      1.00000000      1.00000000      1.00000000      1.00000000      1.00000000      1.00000000      1.00000000      1.00000000      1.00000000      1.00000000      1.00000000      1.00000000      1.00000000      1.00000000      1.00000000      1.00000000      1.00000000
      1.00000000      1.00000000      1.00000000      1.00000000</v>
    <i name="NUPDOWN">     -1.00000000</i>
    <i type="logical" name="LSORBIT"> F  </i>
    <v name="SAXIS">      0.00000000      0.00000000      1.00000000</v>
    <i type="logical" name="LSPIRAL"> F  </i>
    <v name="QSPIRAL">      0.00000000      0.00000000      0.00000000</v>
    <i type="logical" name="LZEROZ"> F  </i>
   </separator>
   <separator name="electronic exchange-correlation" >
    <i type="logical" name="LASPH"> F  </i>
    <i type="logical" name="LMETAGGA"> F  </i>
   </separator>
   <separator name="electronic convergence" >
    <i type="int" name="NELM">    60</i>
    <i type="int" name="NELMDL">     0</i>
    <i type="int" name="NELMIN">     2</i>
    <i name="ENINI">    112.90800000</i>
    <separator name="electronic convergence detail" >
     <i type="logical" name="LDIAG"> T  </i>
     <i type="logical" name="LSUBROT"> F  </i>
     <i name="WEIMIN">      0.00100000</i>
     <i name="EBREAK">      0.00000013</i>
     <i name="DEPER">      0.30000000</i>
     <i type="int" name="NRMM">     4</i>
     <i name="TIME">      0.40000000</i>
    </separator>
   </separator>
   <separator name="electronic mixer" >
    <i name="AMIX">      0.80000000</i>
    <i name="BMIX">      1.00000000</i>
    <i name="AMIN">      0.10000000</i>
    <i name="AMIX_MAG">      3.20000000</i>
    <i name="BMIX_MAG">      1.00000000</i>
    <separator name="electronic mixer details" >
     <i type="int" name="IMIX">     4</i>
     <i type="logical" name="MIXFIRST"> F  </i>
     <i type="int" name="MAXMIX">   -45</i>
     <i name="WC">    100.00000000</i>
     <i type="int" name="INIMIX">     1</i>
     <i type="int" name="MIXPRE">     1</i>
     <i type="int" name="MREMOVE">     5</i>
    </separator>
   </separator>
   <separator name="electronic dipolcorrection" >
    <i type="logical" name="LDIPOL"> F  </i>
    <i type="logical" name="LMONO"> F  </i>
    <i type="int" name="IDIPOL">     0</i>
    <i name="EPSILON">      1.00000000</i>
    <v name="DIPOL">   -100.00000000   -100.00000000   -100.00000000</v>
    <i name="EFIELD">      0.00000000</i>
   </separator>
  </separator>
  <separator name="grids" >
   <i type="int" name="NGX">    28</i>
   <i type="int" name="NGY">    28</i>
   <i type="int" name="NGZ">    28</i>
   <i type="int" name="NGXF">    42</i>
   <i type="int" name="NGYF">    42</i>
   <i type="int" name="NGZF">    42</i>
   <i type="logical" name="ADDGRID"> F  </i>
  </separator>
  <separator name="ionic" >
   <i type="int" name="NSW">    50</i>
   <i type="int" name="IBRION">     0</i>
   <i type="int" name="MDALGO">     2</i>
   <i type="int" name="ISIF">     2</i>
   <i name="PSTRESS">      0.00000000</i>
   <i name="EDIFFG">      0.00100000</i>
   <i type="int" name="NFREE">     0</i>
   <i name="POTIM">      1.00000000</i>
   <i name="SMASS">      1.00000000</i>
   <i name="SCALEE">      1.00000000</i>
  </separator>
  <separator name="ionic md" >
   <i name="TEBEG">    300.00000000</i>
   <i name="TEEND">    300.00000000</i>
   <i type="int" name="NBLOCK">     1</i>
   <i type="int" name="KBLOCK">    50</i>
   <i type="int" name="NPACO">   256</i>
   <i name="APACO">     16.00000000</i>
  </separator>
  <separator name="symmetry" >
   <i type="int" name="ISYM">     0</i>
   <i name="SYMPREC">      0.00001000</i>
  </separator>
  <separator name="dos" >
   <i type="int" name="LORBIT">     0</i>
   <v name="RWIGS">     -1.00000000</v>
   <i type="int" name="NEDOS">   301</i>
   <i name="EMIN">     10.00000000</i>
   <i name="EMAX">    -10.00000000</i>
   <i name="EFERMI">      0.00000000</i>
  </separator>
  <separator name="writing" >
   <i type="int" name="NWRITE">     2</i>
   <i type="logical" name="LWAVE"> T  </i>
   <i type="logical" name="LDOWNSAMPLE"> F  </i>
   <i type="logical" name="LCHARG"> T  </i>
   <i type="logical" name="LPARD"> F  </i>
   <i type="logical" name="LVTOT"> F  </i>
   <i type="logical" name="LVHAR"> F  </i>
   <i type="logical" name="LELF"> F  </i>
   <i type="logical" name="LOPTICS"> F  </i>
   <v name="STM">      0.00000000      0.00000000      0.00000000      0.00000000      0.00000000      0.00000000      0.00000000</v>
  </separator>
  <separator name="performance" >
   <i type="int" name="NPAR">    48</i>
   <i type="int" name="NSIM">     4</i>
   <i type="int" name="NBLK">    -1</i>
   <i type="logical" name="LPLANE"> T  </i>
   <i type="logical" name="LSCALAPACK"> T  </i>
   <i type="logical" name="LSCAAWARE"> T  </i>
   <i type="logical" name="LSCALU"> F  </i>
   <i type="logical" name="LASYNC"> F  </i>
   <i type="logical" name="LORBITALREAL"> F  </i>
  </separator>
  <separator name="miscellaneous" >
   <i type="int" name="IDIOT">     3</i>
   <i type="int" name="PHON_NSTRUCT">    -1</i>
   <i type="logical" name="LMUSIC"> F  </i>
   <v name="POMASS">     28.08500000</v>
   <v name="DARWINR">      0.00000000</v>
   <v name="DARWINV">      1.00000000</v>
   <i type="logical" name="LCORR"> T  </i>
  </separator>
  <i type="logical" name="GGA_COMPAT"> T  </i>
  <i type="logical" name="LBERRY"> F  </i>
  <i type="int" name="ICORELEVEL">     0</i>
  <i type="logical" name="LDAU"> F  </i>
  <i type="int" name="I_CONSTRAINED_M">     0</i>
  <separator name="electronic exchange-correlation" >
   <i type="string" name="GGA">--</i>
   <i type="int" name="VOSKOWN">     0</i>
   <i type="logical" name="LHFCALC"> F  </i>
   <i type="string" name="PRECFOCK"></i>
   <i type="logical" name="LSYMGRAD"> F  </i>
   <i type="logical" name="LHFONE"> F  </i>
   <i type="logical" name="LRHFCALC"> F  </i>
   <i type="logical" name="LTHOMAS"> F  </i>
   <i type="logical" name="LMODELHF"> F  </i>
   <i type="logical" name="LFOCKACE"> F  </i>
   <i name="ENCUT4O">     -1.00000000</i>
   <i type="int" name="EXXOEP">     0</i>
   <i type="int" name="FOURORBIT">     0</i>
   <i name="AEXX">      0.00000000</i>
   <i name="HFALPHA">      0.00000000</i>
   <i name="MCALPHA">      0.00000000</i>
   <i name="ALDAX">      1.00000000</i>
   <i name="AGGAX">      1.00000000</i>
   <i name="ALDAC">      1.00000000</i>
   <i name="AGGAC">      1.00000000</i>
   <i type="int" name="NKREDX">     1</i>
   <i type="int" name="NKREDY">     1</i>
   <i type="int" name="NKREDZ">     1</i>
   <i type="logical" name="SHIFTRED"> F  </i>
   <i type="logical" name="ODDONLY"> F  </i>
   <i type="logical" name="EVENONLY"> F  </i>
   <i type="int" name="LMAXFOCK">     0</i>
   <i type="int" name="NMAXFOCKAE">     0</i>
   <i type="logical" name="LFOCKAEDFT"> F  </i>
   <i name="HFSCREEN">      0.00000000</i>
   <i name="HFSCREENC">      0.00000000</i>
   <i type="int" name="NBANDSGWLOW">     0</i>
  </separator>
  <separator name="vdW DFT" >
   <i type="logical" name="LUSE_VDW"> F  </i>
   <i name="Zab_VDW">     -0.84910000</i>
   <i name="PARAM1">      0.12340000</i>
   <i name="PARAM2">      1.00000000</i>
   <i name="PARAM3">      0.00000000</i>
  </separator>
  <separator name="model GW" >
   <i type="int" name="MODEL_GW">     0</i>
   <i name="MODEL_EPS0">     12.01369721</i>
   <i name="MODEL_ALPHA">      1.00000000</i>
  </separator>
  <separator name="linear response parameters" >
   <i type="logical" name="LEPSILON"> F  </i>
   <i type="logical" name="LRPA"> F  </i>
   <i type="logical" name="LNABLA"> F  </i>
   <i type="logical" name="LVEL"> F  </i>
   <i type="int" name="KINTER">     0</i>
   <i name="CSHIFT">      0.10000000</i>
   <i name="OMEGAMAX">     -1.00000000</i>
   <i name="DEG_THRESHOLD">      0.00200000</i>
   <i name="RTIME">     -0.10000000</i>
   <i name="WPLASMAI">      0.00000000</i>
   <v name="DFIELD">      0.00000000      0.00000000      0.00000000</v>
   <v name="WPLASMA">      0.00000000      0.00000000      0.00000000      0.00000000      0.00000000      0.00000000      0.00000000      0.00000000      0.00000000</v>
  </separator>
  <separator name="orbital magnetization" >
   <i type="logical" name="NUCIND"> F  </i>
   <v name="MAGPOS">      0.00000000      0.00000000      0.00000000</v>
   <i type="logical" name="LNICSALL"> T  </i>
   <i type="logical" name="ORBITALMAG"> F  </i>
   <i type="logical" name="LMAGBLOCH"> F  </i>
   <i type="logical" name="LCHIMAG"> F  </i>
   <i type="logical" name="LGAUGE"> T  </i>
   <i type="int" name="MAGATOM">     0</i>
   <v name="MAGDIPOL">      0.00000000      0.00000000      0.00000000</v>
   <v name="AVECCONST">      0.00000000      0.00000000      0.00000000</v>
  </separator>
  <separator name="response functions" >
   <i type="logical" name="LFINITE_TEMPERATURE"> F  </i>
   <i type="logical" name="LADDER"> F  </i>
   <i type="logical" name="LRPAFORCE"> F  </i>
   <i type="logical" name="LFXC"> F  </i>
   <i type="logical" name="LHARTREE"> T  </i>
   <i type="int" name="IBSE">     0</i>
   <v type="int" name="KPOINT">    -1     0     0     0</v>
   <i type="logical" name="LTCTC"> F  </i>
   <i type="logical" name="LTCTE"> F  </i>
   <i type="logical" name="LTETE"> F  </i>
   <i type="logical" name="LTRIPLET"> F  </i>
   <i type="logical" name="LFXCEPS"> F  </i>
   <i type="logical" name="LFXHEG"> F  </i>
   <i type="int" name="NATURALO">     2</i>
   <i type="logical" name="LHOLEGF"> F  </i>
   <i type="logical" name="L2ORDER"> F  </i>
   <i type="logical" name="LDMP1"> F  </i>
   <i type="logical" name="LMP2LT"> F  </i>
   <i type="logical" name="LSMP2LT"> F  </i>
   <i type="logical" name="LGWLF"> F  </i>
   <i name="ENCUTGW">     -2.00000000</i>
   <i name="ENCUTGWSOFT">     -2.00000000</i>
   <i name="ENCUTLF">     -1.00000000</i>
   <i type="logical" name="LESF_SPLINES"> F  </i>
   <i type="int" name="LMAXMP2">    -1</i>
   <i name="SCISSOR">      0.00000000</i>
   <i type="int" name="NOMEGA">     0</i>
   <i type="int" name="NOMEGAR">     0</i>
   <i type="int" name="NBANDSGW">    -1</i>
   <i type="int" name="NBANDSO">    -1</i>
   <i type="int" name="NBANDSV">    -1</i>
   <i type="int" name="NELM">     1</i>
   <i type="int" name="NELMHF">     1</i>
   <i type="int" name="DIM">     3</i>
   <i type="int" name="IESPILON">     4</i>
   <i type="int" name="ANTIRES">     0</i>
   <i name="OMEGAMAX">    -30.00000000</i>
   <i name="OMEGAMIN">    -30.00000000</i>
   <i name="OMEGATL">   -200.00000000</i>
   <i type="int" name="OMEGAGRID">     0</i>
   <i name="CSHIFT">     -0.10000000</i>
   <i type="logical" name="LSELFENERGY"> F  </i>
   <i type="logical" name="LSPECTRAL"> F  </i>
   <i type="logical" name="LSPECTRALGW"> F  </i>
   <i type="logical" name="LSINGLES"> F  </i>
   <i type="logical" name="LFERMIGW"> F  </i>
   <i type="logical" name="ODDONLYGW"> F  </i>
   <i type="logical" name="EVENONLYGW"> F  </i>
   <i type="int" name="NKREDLFX">     1</i>
   <i type="int" name="NKREDLFY">     1</i>
   <i type="int" name="NKREDLFZ">     1</i>
   <i type="int" name="MAXMEM">  2800</i>
   <i type="int" name="TELESCOPE">     0</i>
   <i type="int" name="NTAUPAR">    -1</i>
   <i type="int" name="NOMEGAPAR">    -1</i>
   <i name="LAMBDA">      1.00000000</i>
  </separator>
  <separator name="External order field" >
   <i name="OFIELD_KAPPA">      0.00000000</i>
   <v name="OFIELD_K">      0.00000000      0.00000000      0.00000000</v>
   <i name="OFIELD_Q6_NEAR">      0.00000000</i>
   <i name="OFIELD_Q6_FAR">      0.00000000</i>
   <i name="OFIELD_A">      0.00000000</i>
  </separator>
 </parameters>
 <atominfo>
  <atoms>      64 </atoms>
  <types>       1 </types>
  <array name="atoms" >
   <dimension dim="1">ion</dimension>
   <field type="string">element</field>
   <field type="int">atomtype</field>
   <set>
    <rc><c>Si</c><c>   1</c></rc>
    <rc><c>Si</c><c>   1</c></rc>
    <rc><c>Si</c><c>   1</c></rc>
    <rc><c>Si</c><c>   1</c></rc>
    <rc><c>Si</c><c>   1</c></rc>
    <rc><c>Si</c><c>   1</c></rc>
    <rc><c>Si</c><c>   1</c></rc>
    <rc><c>Si</c><c>   1</c></rc>
    <rc><c>Si</c><c>   1</c></rc>
    <rc><c>Si</c><c>   1</c></rc>
    <rc><c>Si</c><c>   1</c></rc>
    <rc><c>Si</c><c>   1</c></rc>
    <rc><c>Si</c><c>   1</c></rc>
    <rc><c>Si</c><c>   1</c></rc>
    <rc><c>Si</c><c>   1</c></rc>
    <rc><c>Si</c><c>   1</c></rc>
    <rc><c>Si</c><c>   1</c></rc>
    <rc><c>Si</c><c>   1</c></rc>
    <rc><c>Si</c><c>   1</c></rc>
    <rc><c>Si</c><c>   1</c></rc>
    <rc><c>Si</c><c>   1</c></rc>
    <rc><c>Si</c><c>   1</c></rc>
    <rc><c>Si</c><c>   1</c></rc>
    <rc><c>Si</c><c>   1</c></rc>
    <rc><c>Si</c><c>   1</c></rc>
    <rc><c>Si</c><c>   1</c></rc>
    <rc><c>Si</c><c>   1</c></rc>
    <rc><c>Si</c><c>   1</c></rc>
    <rc><c>Si</c><c>   1</c></rc>
    <rc><c>Si</c><c>   1</c></rc>
    <rc><c>Si</c><c>   1</c></rc>
    <rc><c>Si</c><c>   1</c></rc>
    <rc><c>Si</c><c>   1</c></rc>
    <rc><c>Si</c><c>   1</c></rc>
    <rc><c>Si</c><c>   1</c></rc>
    <rc><c>Si</c><c>   1</c></rc>
    <rc><c>Si</c><c>   1</c></rc>
    <rc><c>Si</c><c>   1</c></rc>
    <rc><c>Si</c><c>   1</c></rc>
    <rc><c>Si</c><c>   1</c></rc>
    <rc><c>Si</c><c>   1</c></rc>
    <rc><c>Si</c><c>   1</c></rc>
    <rc><c>Si</c><c>   1</c></rc>
    <rc><c>Si</c><c>   1</c></rc>
    <rc><c>Si</c><c>   1</c></rc>
    <rc><c>Si</c><c>   1</c></rc>
    <rc><c>Si</c><c>   1</c></rc>
    <rc><c>Si</c><c>   1</c></rc>
    <rc><c>Si</c><c>   1</c></rc>
    <rc><c>Si</c><c>   1</c></rc>
    <rc><c>Si</c><c>   1</c></rc>
    <rc><c>Si</c><c>   1</c></rc>
    <rc><c>Si</c><c>   1</c></rc>
    <rc><c>Si</c><c>   1</c></rc>
    <rc><c>Si</c><c>   1</c></rc>
    <rc><c>Si</c><c>   1</c></rc>
    <rc><c>Si</c><c>   1</c></rc>
    <rc><c>Si</c><c>   1</c></rc>
    <rc><c>Si</c><c>   1</c></rc>
    <rc><c>Si</c><c>   1</c></rc>
    <rc><c>Si</c><c>   1</c></rc>
    <rc><c>Si</c><c>   1</c></rc>
    <rc><c>Si</c><c>   1</c></rc>
    <rc><c>Si</c><c>   1</c></rc>
   </set>
  </array>
  <array name="atomtypes" >
   <dimension dim="1">type</dimension>
   <field type="int">atomspertype</field>
   <field type="string">element</field>
   <field>mass</field>
   <field>valence</field>
   <field type="string">pseudopotential</field>
   <set>
    <rc><c>  64</c><c>Si</c><c>     28.08500000</c><c>      4.00000000</c><c> US Si 30Jun1997                        </c></rc>
   </set>
  </array>
 </atominfo>
 <structure name="initialpos" >
  <crystal>
   <varray name="basis" >
    <v>      10.86180000       0.00000000       0.00000000 </v>
    <v>       0.00000000      10.86180000       0.00000000 </v>
    <v>       0.00000000       0.00000000      10.86180000 </v>
   </varray>
   <i name="volume">   1281.46103541 </i>
   <varray name="rec_basis" >
    <v>       0.09206577       0.00000000       0.00000000 </v>
    <v>       0.00000000       0.09206577       0.00000000 </v>
    <v>       0.00000000       0.00000000       0.09206577 </v>
   </varray>
  </crystal>
  <varray name="positions" >
   <v>       0.00000000       0.00000000       0.00000000 </v>
   <v>       0.50000000       0.00000000       0.00000000 </v>
   <v>       0.00000000       0.50000000       0.00000000 </v>
   <v>       0.50000000       0.50000000       0.00000000 </v>
   <v>       0.00000000       0.00000000       0.50000000 </v>
   <v>       0.50000000       0.00000000       0.50000000 </v>
   <v>       0.00000000       0.50000000       0.50000000 </v>
   <v>       0.50000000       0.50000000       0.50000000 </v>
   <v>       0.37500000       0.12500000       0.37500000 </v>
   <v>       0.87500000       0.12500000       0.37500000 </v>
   <v>       0.37500000       0.62500000       0.37500000 </v>
   <v>       0.87500000       0.62500000       0.37500000 </v>
   <v>       0.37500000       0.12500000       0.87500000 </v>
   <v>       0.87500000       0.12500000       0.87500000 </v>
   <v>       0.37500000       0.62500000       0.87500000 </v>
   <v>       0.87500000       0.62500000       0.87500000 </v>
   <v>       0.00000000       0.25000000       0.25000000 </v>
   <v>       0.50000000       0.25000000       0.25000000 </v>
   <v>       0.00000000       0.75000000       0.25000000 </v>
   <v>       0.50000000       0.75000000       0.25000000 </v>
   <v>       0.00000000       0.25000000       0.75000000 </v>
   <v>       0.50000000       0.25000000       0.75000000 </v>
   <v>       0.00000000       0.75000000       0.75000000 </v>
   <v>       0.50000000       0.75000000       0.75000000 </v>
   <v>       0.37500000       0.37500000       0.12500000 </v>
   <v>       0.87500000       0.37500000       0.12500000 </v>
   <v>       0.37500000       0.87500000       0.12500000 </v>
   <v>       0.87500000       0.87500000       0.12500000 </v>
   <v>       0.37500000       0.37500000       0.62500000 </v>
   <v>       0.87500000       0.37500000       0.62500000 </v>
   <v>       0.37500000       0.87500000       0.62500000 </v>
   <v>       0.87500000       0.87500000       0.62500000 </v>
   <v>       0.25000000       0.00000000       0.25000000 </v>
   <v>       0.75000000       0.00000000       0.25000000 </v>
   <v>       0.25000000       0.50000000       0.25000000 </v>
   <v>       0.75000000       0.50000000       0.25000000 </v>
   <v>       0.25000000       0.00000000       0.75000000 </v>
   <v>       0.75000000       0.00000000       0.75000000 </v>
   <v>       0.25000000       0.50000000       0.75000000 </v>
   <v>       0.75000000       0.50000000       0.75000000 </v>
   <v>       0.12500000       0.12500000       0.12500000 </v>
   <v>       0.62500000       0.12500000       0.12500000 </v>
   <v>       0.12500000       0.62500000       0.12500000 </v>
   <v>       0.62500000       0.62500000       0.12500000 </v>
   <v>       0.12500000       0.12500000       0.62500000 </v>
   <v>       0.62500000       0.12500000       0.62500000 </v>
   <v>       0.12500000       0.62500000       0.62500000 </v>
   <v>       0.62500000       0.62500000       0.62500000 </v>
   <v>       0.25000000       0.25000000       0.00000000 </v>
   <v>       0.75000000       0.25000000       0.00000000 </v>
   <v>       0.25000000       0.75000000       0.00000000 </v>
   <v>       0.75000000       0.75000000       0.00000000 </v>
   <v>       0.25000000       0.25000000       0.50000000 </v>
   <v>       0.75000000       0.25000000       0.50000000 </v>
   <v>       0.25000000       0.75000000       0.50000000 </v>
   <v>       0.75000000       0.75000000       0.50000000 </v>
   <v>       0.12500000       0.37500000       0.37500000 </v>
   <v>       0.62500000       0.37500000       0.37500000 </v>
   <v>       0.12500000       0.87500000       0.37500000 </v>
   <v>       0.62500000       0.87500000       0.37500000 </v>
   <v>       0.12500000       0.37500000       0.87500000 </v>
   <v>       0.62500000       0.37500000       0.87500000 </v>
   <v>       0.12500000       0.87500000       0.87500000 </v>
   <v>       0.62500000       0.87500000       0.87500000 </v>
  </varray>
  <varray name="velocities" >
   <v>       0.00041243       0.00026464       0.00009958 </v>
   <v>       0.00016580      -0.00002475       0.00021220 </v>
   <v>       0.00004525       0.00018763       0.00046949 </v>
   <v>      -0.00035737       0.00005560       0.00020933 </v>
   <v>      -0.00032662       0.00002194      -0.00003482 </v>
   <v>      -0.00076892       0.00011987      -0.00052765 </v>
   <v>      -0.00024099       0.00025670       0.00008425 </v>
   <v>       0.00004842      -0.00010511       0.00061676 </v>
   <v>      -0.00038895      -0.00002359       0.00039639 </v>
   <v>      -0.00013684       0.00020745      -0.00008374 </v>
   <v>       0.00019096       0.00061404      -0.00020093 </v>
   <v>       0.00002340      -0.00018936       0.00001165 </v>
   <v>      -0.00001779      -0.00000449      -0.00027288 </v>
   <v>      -0.00000672      -0.00015929       0.00016038 </v>
   <v>      -0.00038569      -0.00003062      -0.00007413 </v>
   <v>       0.00027551      -0.00006611      -0.00052883 </v>
   <v>       0.00028858       0.00051554       0.00016748 </v>
   <v>      -0.00004166      -0.00031834       0.00054647 </v>
   <v>       0.00027373      -0.00020128      -0.00019348 </v>
   <v>      -0.00032824       0.00027047       0.00016378 </v>
   <v>       0.00001982       0.00014320       0.00038927 </v>
   <v>       0.00019625       0.00030185      -0.00001606 </v>
   <v>       0.00009017       0.00026928      -0.00020248 </v>
   <v>       0.00045653      -0.00043849       0.00016761 </v>
   <v>      -0.00004027       0.00003549      -0.00018961 </v>
   <v>       0.00012949       0.00073858      -0.00046798 </v>
   <v>      -0.00032778       0.00003931       0.00002578 </v>
   <v>       0.00012593      -0.00018150      -0.00014296 </v>
   <v>       0.00004474      -0.00072151      -0.00014570 </v>
   <v>       0.00019955      -0.00001445      -0.00020940 </v>
   <v>      -0.00031028       0.00011797      -0.00042501 </v>
   <v>      -0.00006258      -0.00060014       0.00014662 </v>
   <v>      -0.00015840       0.00017232       0.00003150 </v>
   <v>      -0.00026275       0.00058604       0.00009582 </v>
   <v>       0.00003948      -0.00025430      -0.00056330 </v>
   <v>       0.00004496       0.00003546      -0.00024565 </v>
   <v>      -0.00030510       0.00009867       0.00001750 </v>
   <v>       0.00005323       0.00013793      -0.00011903 </v>
   <v>       0.00012138      -0.00021300      -0.00019167 </v>
   <v>       0.00024343      -0.00039694      -0.00010229 </v>
   <v>       0.00016768      -0.00017064       0.00028164 </v>
   <v>      -0.00007838       0.00019186       0.00001291 </v>
   <v>      -0.00015436       0.00016086      -0.00035491 </v>
   <v>       0.00010790       0.00024871       0.00005723 </v>
   <v>       0.00022941      -0.00001682       0.00021386 </v>
   <v>       0.00008199       0.00023326       0.00003877 </v>
   <v>       0.00026884       0.00022144       0.00020508 </v>
   <v>       0.00009510       0.00031894      -0.00002153 </v>
   <v>      -0.00040576      -0.00054411      -0.00001422 </v>
   <v>       0.00001277      -0.00040821       0.00024157 </v>
   <v>      -0.00007971      -0.00005093       0.00035302 </v>
   <v>      -0.00000144      -0.00009507      -0.00013909 </v>
   <v>       0.00056301       0.00027961       0.00037438 </v>
   <v>      -0.00006909       0.00020297       0.00009445 </v>
   <v>       0.00008379      -0.00048159       0.00003461 </v>
   <v>       0.00008553      -0.00036503       0.00007849 </v>
   <v>       0.00024800      -0.00035245       0.00000245 </v>
   <v>      -0.00027570      -0.00035610       0.00059617 </v>
   <v>       0.00031473      -0.00035752      -0.00032530 </v>
   <v>      -0.00022097       0.00003876      -0.00018485 </v>
   <v>      -0.00041128      -0.00016590      -0.00011473 </v>
   <v>      -0.00022012       0.00005061      -0.00052883 </v>
   <v>       0.00050982       0.00012906      -0.00017949 </v>
   <v>       0.00012616       0.00004162       0.00020405 </v>
  </varray>
 </structure>
 <calculation>
  <scstep>
   <time name="diag">    0.05    0.07</time>
   <time name="diis">    0.02    0.04</time>
   <time name="orth">    0.01    0.02</time>
   <time name="total">    0.10    0.15</time>
   <energy>
    <i name="alphaZ">    267.74379615 </i>
    <i name="ewald">  -7312.82194087 </i>
    <i name="hartreedc">   -499.41045968 </i>
    <i name="XCdc">   -245.18498528 </i>
    <i name="pawpsdc">      0.00000000 </i>
    <i name="pawaedc">      0.00000000 </i>
    <i name="eentropy">     -0.20276200 </i>
    <i name="bandstr">   -187.40405368 </i>
    <i name="atom">   7404.72844425 </i>
    <i name="e_fr_energy">   -572.55196111 </i>
    <i name="e_wo_entrp">   -572.34919911 </i>
    <i name="e_0_energy">   -572.45058011 </i>
   </energy>
  </scstep>
  <scstep>
   <time name="diag">    0.03    0.03</time>
   <time name="diis">    0.01    0.01</time>
   <time name="orth">    0.01    0.01</time>
   <time name="total">    0.06    0.08</time>
   <energy>
    <i name="e_fr_energy">   -335.11834954 </i>
    <i name="e_wo_entrp">   -335.02937746 </i>
    <i name="e_0_energy">   -335.07386350 </i>
   </energy>
  </scstep>
  <scstep>
   <time name="diag">    0.03    0.03</time>
   <time name="diis">    0.01    0.01</time>
   <time name="orth">    0.01    0.01</time>
   <time name="total">    0.06    0.09</time>
   <energy>
    <i name="e_fr_energy">   -293.69533067 </i>
    <i name="e_wo_entrp">   -293.44834268 </i>
    <i name="e_0_energy">   -293.57183668 </i>
   </energy>
  </scstep>
  <scstep>
   <time name="diag">    0.03    0.03</time>
   <time name="diis">    0.01    0.01</time>
   <time name="orth">    0.01    0.01</time>
   <time name="total">    0.07    0.08</time>
   <energy>
    <i name="e_fr_energy">   -290.44024579 </i>
    <i name="e_wo_entrp">   -290.16765640 </i>
    <i name="e_0_energy">   -290.30395110 </i>
   </energy>
  </scstep>
  <scstep>
   <time name="diag">    0.03    0.03</time>
   <time name="diis">    0.01    0.01</time>
   <time name="orth">    0.01    0.01</time>
   <time name="total">    0.07    0.08</time>
   <energy>
    <i name="e_fr_energy">   -290.33111161 </i>
    <i name="e_wo_entrp">   -290.07862517 </i>
    <i name="e_0_energy">   -290.20486839 </i>
   </energy>
  </scstep>
  <scstep>
   <time name="diag">    0.03    0.03</time>
   <time name="diis">    0.01    0.01</time>
   <time name="orth">    0.01    0.01</time>
   <time name="total">    0.07    0.08</time>
   <energy>
    <i name="e_fr_energy">   -290.32155393 </i>
    <i name="e_wo_entrp">   -290.01422101 </i>
    <i name="e_0_energy">   -290.16788747 </i>
   </energy>
  </scstep>
  <scstep>
   <time name="diag">    0.03    0.03</time>
   <time name="diis">    0.01    0.01</time>
   <time name="orth">    0.01    0.01</time>
   <time name="total">    0.08    0.08</time>
   <energy>
    <i name="e_fr_energy">   -290.19900087 </i>
    <i name="e_wo_entrp">   -289.89307689 </i>
    <i name="e_0_energy">   -290.04603888 </i>
   </energy>
  </scstep>
  <scstep>
   <time name="diag">    0.03    0.03</time>
   <time name="diis">    0.01    0.01</time>
   <time name="orth">    0.01    0.01</time>
   <time name="total">    0.07    0.08</time>
   <energy>
    <i name="e_fr_energy">   -290.16083660 </i>
    <i name="e_wo_entrp">   -289.85423850 </i>
    <i name="e_0_energy">   -290.00753755 </i>
   </energy>
  </scstep>
  <scstep>
   <time name="diag">    0.03    0.03</time>
   <time name="diis">    0.02    0.02</time>
   <time name="orth">    0.01    0.01</time>
   <time name="total">    0.08    0.09</time>
   <energy>
    <i name="e_fr_energy">   -290.07142920 </i>
    <i name="e_wo_entrp">   -289.76479614 </i>
    <i name="e_0_energy">   -289.91811267 </i>
   </energy>
  </scstep>
  <scstep>
   <time name="diag">    0.03    0.03</time>
   <time name="diis">    0.01    0.01</time>
   <time name="orth">    0.01    0.01</time>
   <time name="total">    0.07    0.08</time>
   <energy>
    <i name="e_fr_energy">   -290.02821772 </i>
    <i name="e_wo_entrp">   -289.72147240 </i>
    <i name="e_0_energy">   -289.87484506 </i>
   </energy>
  </scstep>
  <scstep>
   <time name="diag">    0.03    0.03</time>
   <time name="diis">    0.01    0.01</time>
   <time name="orth">    0.01    0.01</time>
   <time name="total">    0.07    0.08</time>
   <energy>
    <i name="e_fr_energy">   -289.96151244 </i>
    <i name="e_wo_entrp">   -289.65417732 </i>
    <i name="e_0_energy">   -289.80784488 </i>
   </energy>
  </scstep>
  <scstep>
   <time name="diag">    0.03    0.03</time>
   <time name="diis">    0.01    0.01</time>
   <time name="orth">    0.01    0.01</time>
   <time name="total">    0.10    0.12</time>
   <energy>
    <i name="e_fr_energy">   -289.92857756 </i>
    <i name="e_wo_entrp">   -289.62174307 </i>
    <i name="e_0_energy">   -289.77516032 </i>
   </energy>
  </scstep>
  <scstep>
   <time name="diag">    0.03    0.03</time>
   <time name="diis">    0.01    0.01</time>
   <time name="orth">    0.01    0.01</time>
   <time name="total">    0.07    0.08</time>
   <energy>
    <i name="e_fr_energy">   -289.89216709 </i>
    <i name="e_wo_entrp">   -289.58512642 </i>
    <i name="e_0_energy">   -289.73864676 </i>
   </energy>
  </scstep>
  <scstep>
   <time name="diag">    0.03    0.03</time>
   <time name="diis">    0.01    0.01</time>
   <time name="orth">    0.02    0.02</time>
   <time name="total">    0.07    0.09</time>
   <energy>
    <i name="e_fr_energy">   -289.86330208 </i>
    <i name="e_wo_entrp">   -289.55620485 </i>
    <i name="e_0_energy">   -289.70975347 </i>
   </energy>
  </scstep>
  <scstep>
   <time name="diag">    0.03    0.03</time>
   <time name="diis">    0.01    0.01</time>
   <time name="orth">    0.01    0.01</time>
   <time name="total">    0.07    0.08</time>
   <energy>
    <i name="e_fr_energy">   -289.83891771 </i>
    <i name="e_wo_entrp">   -289.53173078 </i>
    <i name="e_0_energy">   -289.68532424 </i>
   </energy>
  </scstep>
  <scstep>
   <time name="diag">    0.03    0.03</time>
   <time name="diis">    0.01    0.01</time>
   <time name="orth">    0.01    0.01</time>
   <time name="total">    0.07    0.08</time>
   <energy>
    <i name="e_fr_energy">   -289.81853848 </i>
    <i name="e_wo_entrp">   -289.51132328 </i>
    <i name="e_0_energy">   -289.66493088 </i>
   </energy>
  </scstep>
  <scstep>
   <time name="diag">    0.03    0.03</time>
   <time name="diis">    0.01    0.01</time>
   <time name="orth">    0.01    0.01</time>
   <time name="total">    0.07    0.08</time>
   <energy>
    <i name="e_fr_energy">   -289.80614929 </i>
    <i name="e_wo_entrp">   -289.49898597 </i>
    <i name="e_0_energy">   -289.65256763 </i>
   </energy>
  </scstep>
  <scstep>
   <time name="diag">    0.03    0.03</time>
   <time name="diis">    0.01    0.01</time>
   <time name="orth">    0.01    0.01</time>
   <time name="total">    0.07    0.08</time>
   <energy>
    <i name="e_fr_energy">   -289.79224766 </i>
    <i name="e_wo_entrp">   -289.48507416 </i>
    <i name="e_0_energy">   -289.63866091 </i>
   </energy>
  </scstep>
  <scstep>
   <time name="diag">    0.03    0.03</time>
   <time name="diis">    0.01    0.01</time>
   <time name="orth">    0.01    0.01</time>
   <time name="total">    0.07    0.08</time>
   <energy>
    <i name="e_fr_energy">   -289.78511308 </i>
    <i name="e_wo_entrp">   -289.47794541 </i>
    <i name="e_0_energy">   -289.63152925 </i>
   </energy>
  </scstep>
  <scstep>
   <time name="diag">    0.03    0.03</time>
   <time name="diis">    0.01    0.01</time>
   <time name="orth">    0.02    0.02</time>
   <time name="total">    0.07    0.08</time>
   <energy>
    <i name="e_fr_energy">   -289.77685880 </i>
    <i name="e_wo_entrp">   -289.46968341 </i>
    <i name="e_0_energy">   -289.62327111 </i>
   </energy>
  </scstep>
  <scstep>
   <time name="diag">    0.03    0.03</time>
   <time name="diis">    0.01    0.01</time>
   <time name="orth">    0.02    0.02</time>
   <time name="total">    0.08    0.09</time>
   <energy>
    <i name="e_fr_energy">   -289.77249177 </i>
    <i name="e_wo_entrp">   -289.46532354 </i>
    <i name="e_0_energy">   -289.61890765 </i>
   </energy>
  </scstep>
  <scstep>
   <time name="diag">    0.03    0.03</time>
   <time name="diis">    0.01    0.01</time>
   <time name="orth">    0.01    0.01</time>
   <time name="total">    0.07    0.08</time>
   <energy>
    <i name="e_fr_energy">   -289.76832651 </i>
    <i name="e_wo_entrp">   -289.46117024 </i>
    <i name="e_0_energy">   -289.61474838 </i>
   </energy>
  </scstep>
  <scstep>
   <time name="diag">    0.03    0.03</time>
   <time name="diis">    0.01    0.01</time>
   <time name="orth">    0.01    0.01</time>
   <time name="total">    0.07    0.08</time>
   <energy>
    <i name="e_fr_energy">   -289.76470958 </i>
    <i name="e_wo_entrp">   -289.45753754 </i>
    <i name="e_0_energy">   -289.61112356 </i>
   </energy>
  </scstep>
  <scstep>
   <time name="diag">    0.03    0.03</time>
   <time name="diis">    0.01    0.01</time>
   <time name="orth">    0.01    0.01</time>
   <time name="total">    0.07    0.08</time>
   <energy>
    <i name="e_fr_energy">   -289.76257389 </i>
    <i name="e_wo_entrp">   -289.45539901 </i>
    <i name="e_0_energy">   -289.60898645 </i>
   </energy>
  </scstep>
  <scstep>
   <time name="diag">    0.03    0.03</time>
   <time name="diis">    0.01    0.01</time>
   <time name="orth">    0.01    0.01</time>
   <time name="total">    0.07    0.08</time>
   <energy>
    <i name="e_fr_energy">   -289.76252396 </i>
    <i name="e_wo_entrp">   -289.45535510 </i>
    <i name="e_0_energy">   -289.60893953 </i>
   </energy>
  </scstep>
  <scstep>
   <time name="diag">    0.03    0.03</time>
   <time name="diis">    0.01    0.01</time>
   <time name="orth">    0.02    0.02</time>
   <time name="total">    0.07    0.09</time>
   <energy>
    <i name="e_fr_energy">   -289.76174954 </i>
    <i name="e_wo_entrp">   -289.45457337 </i>
    <i name="e_0_energy">   -289.60816146 </i>
   </energy>
  </scstep>
  <scstep>
   <time name="diag">    0.03    0.03</time>
   <time name="diis">    0.01    0.01</time>
   <time name="orth">    0.01    0.01</time>
   <time name="total">    0.07    0.08</time>
   <energy>
    <i name="e_fr_energy">   -289.76548068 </i>
    <i name="e_wo_entrp">   -289.45832238 </i>
    <i name="e_0_energy">   -289.61190153 </i>
   </energy>
  </scstep>
  <scstep>
   <time name="diag">    0.03    0.03</time>
   <time name="diis">    0.01    0.01</time>
   <time name="orth">    0.01    0.01</time>
   <time name="total">    0.07    0.08</time>
   <energy>
    <i name="e_fr_energy">   -289.76400711 </i>
    <i name="e_wo_entrp">   -289.45684639 </i>
    <i name="e_0_energy">   -289.61042675 </i>
   </energy>
  </scstep>
  <scstep>
   <time name="diag">    0.03    0.03</time>
   <time name="diis">    0.01    0.01</time>
   <time name="orth">    0.01    0.01</time>
   <time name="total">    0.07    0.08</time>
   <energy>
    <i name="e_fr_energy">   -289.76522696 </i>
    <i name="e_wo_entrp">   -289.45806609 </i>
    <i name="e_0_energy">   -289.61164653 </i>
   </energy>
  </scstep>
  <scstep>
   <time name="diag">    0.03    0.03</time>
   <time name="diis">    0.01    0.01</time>
   <time name="orth">    0.01    0.01</time>
   <time name="total">    0.07    0.09</time>
   <energy>
    <i name="e_fr_energy">   -289.76673315 </i>
    <i name="e_wo_entrp">   -289.45957462 </i>
    <i name="e_0_energy">   -289.61315388 </i>
   </energy>
  </scstep>
  <scstep>
   <time name="diag">    0.03    0.03</time>
   <time name="diis">    0.01    0.01</time>
   <time name="orth">    0.01    0.01</time>
   <time name="total">    0.07    0.08</time>
   <energy>
    <i name="e_fr_energy">   -289.76959726 </i>
    <i name="e_wo_entrp">   -289.46245152 </i>
    <i name="e_0_energy">   -289.61602439 </i>
   </energy>
  </scstep>
  <scstep>
   <time name="diag">    0.03    0.03</time>
   <time name="diis">    0.01    0.01</time>
   <time name="orth">    0.01    0.01</time>
   <time name="total">    0.07    0.08</time>
   <energy>
    <i name="e_fr_energy">   -289.77181888 </i>
    <i name="e_wo_entrp">   -289.46467432 </i>
    <i name="e_0_energy">   -289.61824660 </i>
   </energy>
  </scstep>
  <scstep>
   <time name="diag">    0.03    0.03</time>
   <time name="diis">    0.01    0.01</time>
   <time name="orth">    0.01    0.01</time>
   <time name="total">    0.06    0.08</time>
   <energy>
    <i name="e_fr_energy">   -289.77364022 </i>
    <i name="e_wo_entrp">   -289.46649480 </i>
    <i name="e_0_energy">   -289.62006751 </i>
   </energy>
  </scstep>
  <scstep>
   <time name="diag">    0.03    0.03</time>
   <time name="diis">    0.01    0.01</time>
   <time name="orth">    0.01    0.01</time>
   <time name="total">    0.06    0.08</time>
   <energy>
    <i name="e_fr_energy">   -289.77641167 </i>
    <i name="e_wo_entrp">   -289.46927183 </i>
    <i name="e_0_energy">   -289.62284175 </i>
   </energy>
  </scstep>
  <scstep>
   <time name="diag">    0.03    0.03</time>
   <time name="diis">    0.01    0.01</time>
   <time name="orth">    0.01    0.01</time>
   <time name="total">    0.07    0.08</time>
   <energy>
    <i name="e_fr_energy">   -289.77771424 </i>
    <i name="e_wo_entrp">   -289.47058062 </i>
    <i name="e_0_energy">   -289.62414743 </i>
   </energy>
  </scstep>
  <scstep>
   <time name="diag">    0.03    0.03</time>
   <time name="diis">    0.01    0.01</time>
   <time name="orth">    0.01    0.01</time>
   <time name="total">    0.07    0.08</time>
   <energy>
    <i name="e_fr_energy">   -289.78037947 </i>
    <i name="e_wo_entrp">   -289.47325383 </i>
    <i name="e_0_energy">   -289.62681665 </i>
   </energy>
  </scstep>
  <scstep>
   <time name="diag">    0.03    0.03</time>
   <time name="diis">    0.01    0.01</time>
   <time name="orth">    0.01    0.01</time>
   <time name="total">    0.07    0.08</time>
   <energy>
    <i name="e_fr_energy">   -289.78327051 </i>
    <i name="e_wo_entrp">   -289.47614335 </i>
    <i name="e_0_energy">   -289.62970693 </i>
   </energy>
  </scstep>
  <scstep>
   <time name="diag">    0.03    0.03</time>
   <time name="diis">    0.01    0.01</time>
   <time name="orth">    0.01    0.01</time>
   <time name="total">    0.07    0.08</time>
   <energy>
    <i name="e_fr_energy">   -289.78554318 </i>
    <i name="e_wo_entrp">   -289.47840790 </i>
    <i name="e_0_energy">   -289.63197554 </i>
   </energy>
  </scstep>
  <scstep>
   <time name="diag">    0.03    0.03</time>
   <time name="diis">    0.01    0.01</time>
   <time name="orth">    0.01    0.01</time>
   <time name="total">    0.07    0.08</time>
   <energy>
    <i name="e_fr_energy">   -289.78922683 </i>
    <i name="e_wo_entrp">   -289.48209551 </i>
    <i name="e_0_energy">   -289.63566117 </i>
   </energy>
  </scstep>
  <scstep>
   <time name="diag">    0.03    0.03</time>
   <time name="diis">    0.01    0.01</time>
   <time name="orth">    0.01    0.01</time>
   <time name="total">    0.06    0.08</time>
   <energy>
    <i name="e_fr_energy">   -289.79207072 </i>
    <i name="e_wo_entrp">   -289.48493992 </i>
    <i name="e_0_energy">   -289.63850532 </i>
   </energy>
  </scstep>
  <scstep>
   <time name="diag">    0.03    0.03</time>
   <time name="diis">    0.01    0.01</time>
   <time name="orth">    0.01    0.01</time>
   <time name="total">    0.07    0.08</time>
   <energy>
    <i name="e_fr_energy">   -289.79484286 </i>
    <i name="e_wo_entrp">   -289.48771069 </i>
    <i name="e_0_energy">   -289.64127678 </i>
   </energy>
  </scstep>
  <scstep>
   <time name="diag">    0.03    0.03</time>
   <time name="diis">    0.01    0.01</time>
   <time name="orth">    0.01    0.01</time>
   <time name="total">    0.07    0.08</time>
   <energy>
    <i name="e_fr_energy">   -289.79790049 </i>
    <i name="e_wo_entrp">   -289.49076855 </i>
    <i name="e_0_energy">   -289.64433452 </i>
   </energy>
  </scstep>
  <scstep>
   <time name="diag">    0.03    0.03</time>
   <time name="diis">    0.01    0.01</time>
   <time name="orth">    0.01    0.01</time>
   <time name="total">    0.07    0.08</time>
   <energy>
    <i name="e_fr_energy">   -289.80138500 </i>
    <i name="e_wo_entrp">   -289.49425452 </i>
    <i name="e_0_energy">   -289.64781976 </i>
   </energy>
  </scstep>
  <scstep>
   <time name="diag">    0.03    0.03</time>
   <time name="diis">    0.01    0.01</time>
   <time name="orth">    0.01    0.01</time>
   <time name="total">    0.07    0.08</time>
   <energy>
    <i name="e_fr_energy">   -289.80265107 </i>
    <i name="e_wo_entrp">   -289.49551126 </i>
    <i name="e_0_energy">   -289.64908117 </i>
   </energy>
  </scstep>
  <scstep>
   <time name="diag">    0.03    0.03</time>
   <time name="diis">    0.01    0.01</time>
   <time name="orth">    0.01    0.01</time>
   <time name="total">    0.07    0.08</time>
   <energy>
    <i name="e_fr_energy">   -289.80491894 </i>
    <i name="e_wo_entrp">   -289.49777487 </i>
    <i name="e_0_energy">   -289.65134691 </i>
   </energy>
  </scstep>
  <scstep>
   <time name="diag">    0.03    0.03</time>
   <time name="diis">    0.01    0.01</time>
   <time name="orth">    0.01    0.01</time>
   <time name="total">    0.07    0.08</time>
   <energy>
    <i name="e_fr_energy">   -289.80742301 </i>
    <i name="e_wo_entrp">   -289.50027704 </i>
    <i name="e_0_energy">   -289.65385002 </i>
   </energy>
  </scstep>
  <scstep>
   <time name="diag">    0.03    0.03</time>
   <time name="diis">    0.01    0.01</time>
   <time name="orth">    0.01    0.01</time>
   <time name="total">    0.07    0.08</time>
   <energy>
    <i name="e_fr_energy">   -289.81082580 </i>
    <i name="e_wo_entrp">   -289.50368008 </i>
    <i name="e_0_energy">   -289.65725294 </i>
   </energy>
  </scstep>
  <scstep>
   <time name="diag">    0.03    0.03</time>
   <time name="diis">    0.01    0.01</time>
   <time name="orth">    0.01    0.01</time>
   <time name="total">    0.07    0.08</time>
   <energy>
    <i name="e_fr_energy">   -289.81438231 </i>
    <i name="e_wo_entrp">   -289.50723916 </i>
    <i name="e_0_energy">   -289.66081074 </i>
   </energy>
  </scstep>
  <scstep>
   <time name="diag">    0.03    0.03</time>
   <time name="diis">    0.01    0.01</time>
   <time name="orth">    0.01    0.01</time>
   <time name="total">    0.07    0.08</time>
   <energy>
    <i name="e_fr_energy">   -289.81690802 </i>
    <i name="e_wo_entrp">   -289.50976271 </i>
    <i name="e_0_energy">   -289.66333536 </i>
   </energy>
  </scstep>
  <scstep>
   <time name="diag">    0.03    0.03</time>
   <time name="diis">    0.01    0.01</time>
   <time name="orth">    0.01    0.01</time>
   <time name="total">    0.07    0.08</time>
   <energy>
    <i name="e_fr_energy">   -289.81957830 </i>
    <i name="e_wo_entrp">   -289.51243245 </i>
    <i name="e_0_energy">   -289.66600537 </i>
   </energy>
  </scstep>
  <scstep>
   <time name="diag">    0.04    0.04</time>
   <time name="diis">    0.01    0.01</time>
   <time name="orth">    0.01    0.01</time>
   <time name="total">    0.07    0.08</time>
   <energy>
    <i name="e_fr_energy">   -289.82313411 </i>
    <i name="e_wo_entrp">   -289.51599370 </i>
    <i name="e_0_energy">   -289.66956391 </i>
   </energy>
  </scstep>
  <scstep>
   <time name="diag">    0.03    0.03</time>
   <time name="diis">    0.01    0.01</time>
   <time name="orth">    0.01    0.01</time>
   <time name="total">    0.07    0.08</time>
   <energy>
    <i name="e_fr_energy">   -289.82755726 </i>
    <i name="e_wo_entrp">   -289.52042422 </i>
    <i name="e_0_energy">   -289.67399074 </i>
   </energy>
  </scstep>
  <scstep>
   <time name="diag">    0.03    0.03</time>
   <time name="diis">    0.01    0.01</time>
   <time name="orth">    0.01    0.01</time>
   <time name="total">    0.06    0.08</time>
   <energy>
    <i name="e_fr_energy">   -289.83075260 </i>
    <i name="e_wo_entrp">   -289.52362065 </i>
    <i name="e_0_energy">   -289.67718662 </i>
   </energy>
  </scstep>
  <scstep>
   <time name="diag">    0.03    0.03</time>
   <time name="diis">    0.01    0.01</time>
   <time name="orth">    0.01    0.01</time>
   <time name="total">    0.06    0.08</time>
   <energy>
    <i name="e_fr_energy">   -289.83342995 </i>
    <i name="e_wo_entrp">   -289.52629819 </i>
    <i name="e_0_energy">   -289.67986407 </i>
   </energy>
  </scstep>
  <scstep>
   <time name="diag">    0.03    0.03</time>
   <time name="diis">    0.01    0.01</time>
   <time name="orth">    0.01    0.01</time>
   <time name="total">    0.06    0.08</time>
   <energy>
    <i name="e_fr_energy">   -289.83707142 </i>
    <i name="e_wo_entrp">   -289.52994224 </i>
    <i name="e_0_energy">   -289.68350683 </i>
   </energy>
  </scstep>
  <scstep>
   <time name="diag">    0.03    0.03</time>
   <time name="diis">    0.01    0.01</time>
   <time name="orth">    0.01    0.01</time>
   <time name="total">    0.07    0.08</time>
   <energy>
    <i name="e_fr_energy">   -289.83988253 </i>
    <i name="e_wo_entrp">   -289.53275554 </i>
    <i name="e_0_energy">   -289.68631904 </i>
   </energy>
  </scstep>
  <scstep>
   <time name="diag">    0.03    0.03</time>
   <time name="diis">    0.01    0.01</time>
   <time name="orth">    0.01    0.01</time>
   <time name="total">    0.08    0.08</time>
   <energy>
    <i name="e_fr_energy">   -289.84350033 </i>
    <i name="e_wo_entrp">   -289.53637839 </i>
    <i name="e_0_energy">   -289.68993936 </i>
   </energy>
  </scstep>
  <scstep>
   <time name="diag">    0.03    0.03</time>
   <time name="diis">    0.01    0.01</time>
   <time name="orth">    0.01    0.01</time>
   <time name="total">    0.06    0.08</time>
   <energy>
    <i name="e_fr_energy">   -289.84456954 </i>
    <i name="e_wo_entrp">   -289.53744071 </i>
    <i name="e_0_energy">   -289.69100513 </i>
   </energy>
  </scstep>
  <scstep>
   <time name="diag">    0.03    0.03</time>
   <time name="diis">    0.01    0.01</time>
   <time name="orth">    0.01    0.01</time>
   <time name="total">    0.07    0.08</time>
   <energy>
    <i name="e_fr_energy">   -289.84700878 </i>
    <i name="e_wo_entrp">   -289.53987918 </i>
    <i name="e_0_energy">   -289.69344398 </i>
   </energy>
  </scstep>
  <scstep>
   <time name="diag">    0.03    0.03</time>
   <time name="diis">    0.01    0.01</time>
   <time name="orth">    0.01    0.01</time>
   <time name="total">    0.06    0.08</time>
   <energy>
    <i name="alphaZ">    267.74379615 </i>
    <i name="ewald">  -7312.82194087 </i>
    <i name="hartreedc">   -464.78207646 </i>
    <i name="XCdc">   -251.52783069 </i>
    <i name="pawpsdc">      0.00000000 </i>
    <i name="pawaedc">      0.00000000 </i>
    <i name="eentropy">     -0.30712793 </i>
    <i name="bandstr">     67.11717841 </i>
    <i name="atom">   7404.72844425 </i>
    <i name="e_fr_energy">   -289.84955713 </i>
    <i name="e_wo_entrp">   -289.54242920 </i>
    <i name="e_0_energy">   -289.69599316 </i>
   </energy>
  </scstep>
  <structure>
   <crystal>
    <varray name="basis" >
     <v>      10.86180000       0.00000000       0.00000000 </v>
     <v>       0.00000000      10.86180000       0.00000000 </v>
     <v>       0.00000000       0.00000000      10.86180000 </v>
    </varray>
    <i name="volume">   1281.46103541 </i>
    <varray name="rec_basis" >
     <v>       0.09206577       0.00000000       0.00000000 </v>
     <v>       0.00000000       0.09206577       0.00000000 </v>
     <v>       0.00000000       0.00000000       0.09206577 </v>
    </varray>
   </crystal>
   <varray name="positions" >
    <v>       0.00000000       0.00000000       0.00000000 </v>
    <v>       0.50000000       0.00000000       0.00000000 </v>
    <v>       0.00000000       0.50000000       0.00000000 </v>
    <v>       0.50000000       0.50000000       0.00000000 </v>
    <v>       0.00000000       0.00000000       0.50000000 </v>
    <v>       0.50000000       0.00000000       0.50000000 </v>
    <v>       0.00000000       0.50000000       0.50000000 </v>
    <v>       0.50000000       0.50000000       0.50000000 </v>
    <v>       0.37500000       0.12500000       0.37500000 </v>
    <v>       0.87500000       0.12500000       0.37500000 </v>
    <v>       0.37500000       0.62500000       0.37500000 </v>
    <v>       0.87500000       0.62500000       0.37500000 </v>
    <v>       0.37500000       0.12500000       0.87500000 </v>
    <v>       0.87500000       0.12500000       0.87500000 </v>
    <v>       0.37500000       0.62500000       0.87500000 </v>
    <v>       0.87500000       0.62500000       0.87500000 </v>
    <v>       0.00000000       0.25000000       0.25000000 </v>
    <v>       0.50000000       0.25000000       0.25000000 </v>
    <v>       0.00000000       0.75000000       0.25000000 </v>
    <v>       0.50000000       0.75000000       0.25000000 </v>
    <v>       0.00000000       0.25000000       0.75000000 </v>
    <v>       0.50000000       0.25000000       0.75000000 </v>
    <v>       0.00000000       0.75000000       0.75000000 </v>
    <v>       0.50000000       0.75000000       0.75000000 </v>
    <v>       0.37500000       0.37500000       0.12500000 </v>
    <v>       0.87500000       0.37500000       0.12500000 </v>
    <v>       0.37500000       0.87500000       0.12500000 </v>
    <v>       0.87500000       0.87500000       0.12500000 </v>
    <v>       0.37500000       0.37500000       0.62500000 </v>
    <v>       0.87500000       0.37500000       0.62500000 </v>
    <v>       0.37500000       0.87500000       0.62500000 </v>
    <v>       0.87500000       0.87500000       0.62500000 </v>
    <v>       0.25000000       0.00000000       0.25000000 </v>
    <v>       0.75000000       0.00000000       0.25000000 </v>
    <v>       0.25000000       0.50000000       0.25000000 </v>
    <v>       0.75000000       0.50000000       0.25000000 </v>
    <v>       0.25000000       0.00000000       0.75000000 </v>
    <v>       0.75000000       0.00000000       0.75000000 </v>
    <v>       0.25000000       0.50000000       0.75000000 </v>
    <v>       0.75000000       0.50000000       0.75000000 </v>
    <v>       0.12500000       0.12500000       0.12500000 </v>
    <v>       0.62500000       0.12500000       0.12500000 </v>
    <v>       0.12500000       0.62500000       0.12500000 </v>
    <v>       0.62500000       0.62500000       0.12500000 </v>
    <v>       0.12500000       0.12500000       0.62500000 </v>
    <v>       0.62500000       0.12500000       0.62500000 </v>
    <v>       0.12500000       0.62500000       0.62500000 </v>
    <v>       0.62500000       0.62500000       0.62500000 </v>
    <v>       0.25000000       0.25000000       0.00000000 </v>
    <v>       0.75000000       0.25000000       0.00000000 </v>
    <v>       0.25000000       0.75000000       0.00000000 </v>
    <v>       0.75000000       0.75000000       0.00000000 </v>
    <v>       0.25000000       0.25000000       0.50000000 </v>
    <v>       0.75000000       0.25000000       0.50000000 </v>
    <v>       0.25000000       0.75000000       0.50000000 </v>
    <v>       0.75000000       0.75000000       0.50000000 </v>
    <v>       0.12500000       0.37500000       0.37500000 </v>
    <v>       0.62500000       0.37500000       0.37500000 </v>
    <v>       0.12500000       0.87500000       0.37500000 </v>
    <v>       0.62500000       0.87500000       0.37500000 </v>
    <v>       0.12500000       0.37500000       0.87500000 </v>
    <v>       0.62500000       0.37500000       0.87500000 </v>
    <v>       0.12500000       0.87500000       0.87500000 </v>
    <v>       0.62500000       0.87500000       0.87500000 </v>
   </varray>
  </structure>
  <varray name="forces" >
   <v>       0.15811085      -0.28575489       0.40476688 </v>
   <v>      -0.09927084      -0.12957788      -0.06222101 </v>
   <v>       0.03443055      -0.01806881      -0.14821500 </v>
   <v>       0.21455031       0.18579040      -0.15764876 </v>
   <v>      -0.00005312       0.51908382      -0.20745931 </v>
   <v>       0.17601558       0.10150736      -0.04379615 </v>
   <v>      -0.15008205      -0.04059977      -0.08994607 </v>
   <v>       0.29866997      -0.13306593       0.26238213 </v>
   <v>      -0.05417386       0.02949572       0.23919478 </v>
   <v>      -0.21385835       0.17934634      -0.21961023 </v>
   <v>       0.54164668      -0.15207706       0.09693606 </v>
   <v>      -0.01728171      -0.06723686       0.11126060 </v>
   <v>      -0.06175252      -0.09196122      -0.07885017 </v>
   <v>       0.30028329      -0.06912608       0.00636824 </v>
   <v>      -0.22095317       0.13655779      -0.41613338 </v>
   <v>      -0.12266018      -0.00317134       0.03517502 </v>
   <v>       0.04999373      -0.00285135       0.29425684 </v>
   <v>       0.34503916      -0.21721404       0.39442650 </v>
   <v>      -0.30376884      -0.10306649      -0.25368813 </v>
   <v>       0.37983149       0.45078106       0.00557079 </v>
   <v>       0.24805023       0.26285914      -0.20294901 </v>
   <v>      -0.27168451      -0.16145149      -0.21537341 </v>
   <v>       0.10067106      -0.22385965       0.21762684 </v>
   <v>       0.14845878      -0.08372129       0.02025531 </v>
   <v>      -0.15810921      -0.25025433      -0.11396527 </v>
   <v>       0.20932788       0.31686766       0.11719289 </v>
   <v>       0.19637289       0.11428192      -0.36416616 </v>
   <v>      -0.04323325      -0.03405123      -0.03823253 </v>
   <v>      -0.04195426       0.00434690       0.13246402 </v>
   <v>      -0.04270947       0.09882499      -0.11219996 </v>
   <v>       0.19598139       0.29182447       0.45919585 </v>
   <v>      -0.20487272      -0.46749028       0.11339365 </v>
   <v>      -0.06093552       0.15388094      -0.10583069 </v>
   <v>      -0.00185918      -0.05971172       0.12983612 </v>
   <v>      -0.58353529      -0.12946668       0.10911721 </v>
   <v>      -0.03176210      -0.09630163       0.36436808 </v>
   <v>       0.11142540       0.12820538       0.14094469 </v>
   <v>      -0.44288290      -0.07815319      -0.07731487 </v>
   <v>       0.07626086      -0.20341422      -0.09785713 </v>
   <v>       0.16729034       0.23348537      -0.14694367 </v>
   <v>       0.05711906      -0.12440556      -0.08901488 </v>
   <v>      -0.11179904      -0.36982636       0.15637302 </v>
   <v>      -0.25413573       0.19960909      -0.22257968 </v>
   <v>       0.34563608       0.25326241      -0.02524371 </v>
   <v>       0.29009724       0.20587633       0.17643192 </v>
   <v>      -0.23958234       0.16522511      -0.17938821 </v>
   <v>      -0.25928113      -0.44758979       0.36112143 </v>
   <v>      -0.10285740      -0.02074088       0.01170514 </v>
   <v>      -0.27602252      -0.30104709      -0.37500618 </v>
   <v>      -0.13430574       0.03377597       0.30521518 </v>
   <v>      -0.19316775       0.21536222      -0.08403786 </v>
   <v>       0.10773747       0.04893781      -0.03729668 </v>
   <v>       0.12325427       0.02217433       0.02361532 </v>
   <v>       0.03196099       0.07958669      -0.09391732 </v>
   <v>       0.08764303      -0.03533356       0.36774809 </v>
   <v>      -0.18655919      -0.25295706      -0.21769509 </v>
   <v>      -0.23573753      -0.06503729       0.17867127 </v>
   <v>       0.13774576       0.02287827       0.09542648 </v>
   <v>      -0.18013018       0.23973486      -0.56641506 </v>
   <v>       0.07139485       0.07795008      -0.09780670 </v>
   <v>       0.05602078       0.04837896       0.07421393 </v>
   <v>       0.00287528       0.15018907      -0.53667619 </v>
   <v>       0.25132401      -0.00650247       0.04491939 </v>
   <v>      -0.22293824      -0.25818004       0.22972683 </v>
  </varray>
  <varray name="stress" >
   <v>       7.53846706      -1.20820125      -1.18205879 </v>
   <v>      -1.20820134       0.52624804       0.52507069 </v>
   <v>      -1.18205876       0.52507047       7.76743419 </v>
  </varray>
  <energy>
   <i name="e_fr_energy">   -289.84955713 </i>
   <i name="e_wo_entrp">   -289.54242920 </i>
   <i name="e_0_energy">   -289.69599316 </i>
   <i name="kinetic">      2.44371396 </i>
   <i name="lattice kinetic">      0.00000000 </i>
   <i name="nosepot">      0.00000000 </i>
   <i name="nosekinetic">      0.00000000 </i>
   <i name="total">   -287.40584317 </i>
  </energy>
  <time name="totalsc">    4.34    5.30</time>
 </calculation>
 <calculation>
  <scstep>
   <time name="diag">    0.03    0.03</time>
   <time name="diis">    0.01    0.01</time>
   <time name="orth">    0.02    0.02</time>
   <time name="total">    0.07    0.07</time>
   <energy>
    <i name="alphaZ">    267.74379615 </i>
    <i name="ewald">  -7312.77916800 </i>
    <i name="hartreedc">   -464.80435731 </i>
    <i name="XCdc">   -251.52810175 </i>
    <i name="pawpsdc">      0.00000000 </i>
    <i name="pawaedc">      0.00000000 </i>
    <i name="eentropy">     -0.30635615 </i>
    <i name="bandstr">     67.10071020 </i>
    <i name="atom">   7404.72844425 </i>
    <i name="e_fr_energy">   -289.84503261 </i>
    <i name="e_wo_entrp">   -289.53867646 </i>
    <i name="e_0_energy">   -289.69185454 </i>
   </energy>
  </scstep>
  <scstep>
   <time name="diag">    0.03    0.03</time>
   <time name="diis">    0.02    0.02</time>
   <time name="orth">    0.01    0.01</time>
   <time name="total">    0.07    0.09</time>
   <energy>
    <i name="e_fr_energy">   -289.76485369 </i>
    <i name="e_wo_entrp">   -289.45788145 </i>
    <i name="e_0_energy">   -289.61136757 </i>
   </energy>
  </scstep>
  <scstep>
   <time name="diag">    0.03    0.03</time>
   <time name="diis">    0.01    0.01</time>
   <time name="orth">    0.01    0.01</time>
   <time name="total">    0.07    0.08</time>
   <energy>
    <i name="e_fr_energy">   -289.75908449 </i>
    <i name="e_wo_entrp">   -289.45197629 </i>
    <i name="e_0_energy">   -289.60553039 </i>
   </energy>
  </scstep>
  <scstep>
   <time name="diag">    0.03    0.03</time>
   <time name="diis">    0.01    0.01</time>
   <time name="orth">    0.01    0.01</time>
   <time name="total">    0.07    0.08</time>
   <energy>
    <i name="e_fr_energy">   -289.75478283 </i>
    <i name="e_wo_entrp">   -289.44768217 </i>
    <i name="e_0_energy">   -289.60123250 </i>
   </energy>
  </scstep>
  <scstep>
   <time name="diag">    0.03    0.03</time>
   <time name="diis">    0.01    0.01</time>
   <time name="orth">    0.01    0.01</time>
   <time name="total">    0.07    0.08</time>
   <energy>
    <i name="e_fr_energy">   -289.75328561 </i>
    <i name="e_wo_entrp">   -289.44619135 </i>
    <i name="e_0_energy">   -289.59973848 </i>
   </energy>
  </scstep>
  <scstep>
   <time name="diag">    0.03    0.03</time>
   <time name="diis">    0.01    0.01</time>
   <time name="orth">    0.01    0.02</time>
   <time name="total">    0.07    0.08</time>
   <energy>
    <i name="e_fr_energy">   -289.75181949 </i>
    <i name="e_wo_entrp">   -289.44474410 </i>
    <i name="e_0_energy">   -289.59828179 </i>
   </energy>
  </scstep>
  <scstep>
   <time name="diag">    0.08    0.08</time>
   <time name="diis">    0.01    0.01</time>
   <time name="orth">    0.01    0.01</time>
   <time name="total">    0.12    0.13</time>
   <energy>
    <i name="e_fr_energy">   -289.75121725 </i>
    <i name="e_wo_entrp">   -289.44415122 </i>
    <i name="e_0_energy">   -289.59768424 </i>
   </energy>
  </scstep>
  <scstep>
   <time name="diag">    0.03    0.03</time>
   <time name="diis">    0.01    0.01</time>
   <time name="orth">    0.01    0.01</time>
   <time name="total">    0.07    0.08</time>
   <energy>
    <i name="e_fr_energy">   -289.75100322 </i>
    <i name="e_wo_entrp">   -289.44393008 </i>
    <i name="e_0_energy">   -289.59746665 </i>
   </energy>
  </scstep>
  <scstep>
   <time name="diag">    0.03    0.03</time>
   <time name="diis">    0.01    0.01</time>
   <time name="orth">    0.01    0.01</time>
   <time name="total">    0.07    0.08</time>
   <energy>
    <i name="e_fr_energy">   -289.75126287 </i>
    <i name="e_wo_entrp">   -289.44420151 </i>
    <i name="e_0_energy">   -289.59773219 </i>
   </energy>
  </scstep>
  <scstep>
   <time name="diag">    0.03    0.03</time>
   <time name="diis">    0.01    0.01</time>
   <time name="orth">    0.01    0.01</time>
   <time name="total">    0.06    0.08</time>
   <energy>
    <i name="e_fr_energy">   -289.75164216 </i>
    <i name="e_wo_entrp">   -289.44458064 </i>
    <i name="e_0_energy">   -289.59811140 </i>
   </energy>
  </scstep>
  <scstep>
   <time name="diag">    0.03    0.03</time>
   <time name="diis">    0.01    0.01</time>
   <time name="orth">    0.01    0.01</time>
   <time name="total">    0.07    0.08</time>
   <energy>
    <i name="e_fr_energy">   -289.75257777 </i>
    <i name="e_wo_entrp">   -289.44550955 </i>
    <i name="e_0_energy">   -289.59904366 </i>
   </energy>
  </scstep>
  <scstep>
   <time name="diag">    0.04    0.04</time>
   <time name="diis">    0.01    0.01</time>
   <time name="orth">    0.01    0.01</time>
   <time name="total">    0.07    0.09</time>
   <energy>
    <i name="e_fr_energy">   -289.75311283 </i>
    <i name="e_wo_entrp">   -289.44604523 </i>
    <i name="e_0_energy">   -289.59957903 </i>
   </energy>
  </scstep>
  <scstep>
   <time name="diag">    0.03    0.03</time>
   <time name="diis">    0.01    0.01</time>
   <time name="orth">    0.01    0.01</time>
   <time name="total">    0.06    0.08</time>
   <energy>
    <i name="e_fr_energy">   -289.75393112 </i>
    <i name="e_wo_entrp">   -289.44686429 </i>
    <i name="e_0_energy">   -289.60039771 </i>
   </energy>
  </scstep>
  <scstep>
   <time name="diag">    0.03    0.03</time>
   <time name="diis">    0.01    0.01</time>
   <time name="orth">    0.01    0.01</time>
   <time name="total">    0.07    0.08</time>
   <energy>
    <i name="e_fr_energy">   -289.75460916 </i>
    <i name="e_wo_entrp">   -289.44754688 </i>
    <i name="e_0_energy">   -289.60107802 </i>
   </energy>
  </scstep>
  <scstep>
   <time name="diag">    0.03    0.03</time>
   <time name="diis">    0.01    0.01</time>
   <time name="orth">    0.01    0.01</time>
   <time name="total">    0.06    0.08</time>
   <energy>
    <i name="e_fr_energy">   -289.75553762 </i>
    <i name="e_wo_entrp">   -289.44847435 </i>
    <i name="e_0_energy">   -289.60200599 </i>
   </energy>
  </scstep>
  <scstep>
   <time name="diag">    0.03    0.03</time>
   <time name="diis">    0.01    0.01</time>
   <time name="orth">    0.01    0.01</time>
   <time name="total">    0.06    0.08</time>
   <energy>
    <i name="e_fr_energy">   -289.75644326 </i>
    <i name="e_wo_entrp">   -289.44937948 </i>
    <i name="e_0_energy">   -289.60291137 </i>
   </energy>
  </scstep>
  <scstep>
   <time name="diag">    0.03    0.03</time>
   <time name="diis">    0.01    0.01</time>
   <time name="orth">    0.01    0.01</time>
   <time name="total">    0.08    0.08</time>
   <energy>
    <i name="e_fr_energy">   -289.75736993 </i>
    <i name="e_wo_entrp">   -289.45030634 </i>
    <i name="e_0_energy">   -289.60383813 </i>
   </energy>
  </scstep>
  <scstep>
   <time name="diag">    0.03    0.03</time>
   <time name="diis">    0.01    0.01</time>
   <time name="orth">    0.01    0.01</time>
   <time name="total">    0.06    0.08</time>
   <energy>
    <i name="e_fr_energy">   -289.75827953 </i>
    <i name="e_wo_entrp">   -289.45121598 </i>
    <i name="e_0_energy">   -289.60474775 </i>
   </energy>
  </scstep>
  <scstep>
   <time name="diag">    0.03    0.03</time>
   <time name="diis">    0.01    0.01</time>
   <time name="orth">    0.01    0.01</time>
   <time name="total">    0.06    0.08</time>
   <energy>
    <i name="e_fr_energy">   -289.75926709 </i>
    <i name="e_wo_entrp">   -289.45220340 </i>
    <i name="e_0_energy">   -289.60573525 </i>
   </energy>
  </scstep>
  <scstep>
   <time name="diag">    0.03    0.03</time>
   <time name="diis">    0.01    0.01</time>
   <time name="orth">    0.01    0.01</time>
   <time name="total">    0.06    0.07</time>
   <energy>
    <i name="e_fr_energy">   -289.76022210 </i>
    <i name="e_wo_entrp">   -289.45315855 </i>
    <i name="e_0_energy">   -289.60669032 </i>
   </energy>
  </scstep>
  <scstep>
   <time name="diag">    0.03    0.03</time>
   <time name="diis">    0.01    0.01</time>
   <time name="orth">    0.01    0.01</time>
   <time name="total">    0.07    0.08</time>
   <energy>
    <i name="e_fr_energy">   -289.76116750 </i>
    <i name="e_wo_entrp">   -289.45410465 </i>
    <i name="e_0_energy">   -289.60763608 </i>
   </energy>
  </scstep>
  <scstep>
   <time name="diag">    0.03    0.03</time>
   <time name="diis">    0.01    0.01</time>
   <time name="orth">    0.01    0.01</time>
   <time name="total">    0.06    0.08</time>
   <energy>
    <i name="e_fr_energy">   -289.76211285 </i>
    <i name="e_wo_entrp">   -289.45505104 </i>
    <i name="e_0_energy">   -289.60858194 </i>
   </energy>
  </scstep>
  <scstep>
   <time name="diag">    0.03    0.03</time>
   <time name="diis">    0.01    0.01</time>
   <time name="orth">    0.01    0.01</time>
   <time name="total">    0.06    0.08</time>
   <energy>
    <i name="e_fr_energy">   -289.76304465 </i>
    <i name="e_wo_entrp">   -289.45598353 </i>
    <i name="e_0_energy">   -289.60951409 </i>
   </energy>
  </scstep>
  <scstep>
   <time name="diag">    0.03    0.03</time>
   <time name="diis">    0.01    0.01</time>
   <time name="orth">    0.01    0.01</time>
   <time name="total">    0.06    0.08</time>
   <energy>
    <i name="e_fr_energy">   -289.76409787 </i>
    <i name="e_wo_entrp">   -289.45703541 </i>
    <i name="e_0_energy">   -289.61056664 </i>
   </energy>
  </scstep>
  <scstep>
   <time name="diag">    0.03    0.03</time>
   <time name="diis">    0.01    0.01</time>
   <time name="orth">    0.01    0.01</time>
   <time name="total">    0.06    0.08</time>
   <energy>
    <i name="e_fr_energy">   -289.76512954 </i>
    <i name="e_wo_entrp">   -289.45806641 </i>
    <i name="e_0_energy">   -289.61159798 </i>
   </energy>
  </scstep>
  <scstep>
   <time name="diag">    0.03    0.03</time>
   <time name="diis">    0.01    0.01</time>
   <time name="orth">    0.01    0.01</time>
   <time name="total">    0.06    0.08</time>
   <energy>
    <i name="e_fr_energy">   -289.76617669 </i>
    <i name="e_wo_entrp">   -289.45911265 </i>
    <i name="e_0_energy">   -289.61264467 </i>
   </energy>
  </scstep>
  <scstep>
   <time name="diag">    0.03    0.03</time>
   <time name="diis">    0.01    0.01</time>
   <time name="orth">    0.01    0.01</time>
   <time name="total">    0.07    0.08</time>
   <energy>
    <i name="e_fr_energy">   -289.76720535 </i>
    <i name="e_wo_entrp">   -289.46014123 </i>
    <i name="e_0_energy">   -289.61367329 </i>
   </energy>
  </scstep>
  <scstep>
   <time name="diag">    0.03    0.03</time>
   <time name="diis">    0.01    0.01</time>
   <time name="orth">    0.01    0.01</time>
   <time name="total">    0.06    0.08</time>
   <energy>
    <i name="e_fr_energy">   -289.76820262 </i>
    <i name="e_wo_entrp">   -289.46113851 </i>
    <i name="e_0_energy">   -289.61467057 </i>
   </energy>
  </scstep>
  <scstep>
   <time name="diag">    0.03    0.03</time>
   <time name="diis">    0.01    0.01</time>
   <time name="orth">    0.01    0.01</time>
   <time name="total">    0.06    0.08</time>
   <energy>
    <i name="e_fr_energy">   -289.76923549 </i>
    <i name="e_wo_entrp">   -289.46217095 </i>
    <i name="e_0_energy">   -289.61570322 </i>
   </energy>
  </scstep>
  <scstep>
   <time name="diag">    0.03    0.03</time>
   <time name="diis">    0.01    0.01</time>
   <time name="orth">    0.01    0.01</time>
   <time name="total">    0.06    0.08</time>
   <energy>
    <i name="e_fr_energy">   -289.77023998 </i>
    <i name="e_wo_entrp">   -289.46317673 </i>
    <i name="e_0_energy">   -289.61670836 </i>
   </energy>
  </scstep>
  <scstep>
   <time name="diag">    0.03    0.03</time>
   <time name="diis">    0.01    0.01</time>
   <time name="orth">    0.01    0.01</time>
   <time name="total">    0.06    0.08</time>
   <energy>
    <i name="e_fr_energy">   -289.77129123 </i>
    <i name="e_wo_entrp">   -289.46422765 </i>
    <i name="e_0_energy">   -289.61775944 </i>
   </energy>
  </scstep>
  <scstep>
   <time name="diag">    0.03    0.03</time>
   <time name="diis">    0.01    0.01</time>
   <time name="orth">    0.01    0.01</time>
   <time name="total">    0.07    0.08</time>
   <energy>
    <i name="e_fr_energy">   -289.77232444 </i>
    <i name="e_wo_entrp">   -289.46526165 </i>
    <i name="e_0_energy">   -289.61879304 </i>
   </energy>
  </scstep>
  <scstep>
   <time name="diag">    0.03    0.03</time>
   <time name="diis">    0.01    0.01</time>
   <time name="orth">    0.01    0.01</time>
   <time name="total">    0.06    0.08</time>
   <energy>
    <i name="e_fr_energy">   -289.77326516 </i>
    <i name="e_wo_entrp">   -289.46620184 </i>
    <i name="e_0_energy">   -289.61973350 </i>
   </energy>
  </scstep>
  <scstep>
   <time name="diag">    0.03    0.03</time>
   <time name="diis">    0.01    0.01</time>
   <time name="orth">    0.01    0.01</time>
   <time name="total">    0.06    0.08</time>
   <energy>
    <i name="e_fr_energy">   -289.77432195 </i>
    <i name="e_wo_entrp">   -289.46725864 </i>
    <i name="e_0_energy">   -289.62079030 </i>
   </energy>
  </scstep>
  <scstep>
   <time name="diag">    0.03    0.03</time>
   <time name="diis">    0.01    0.01</time>
   <time name="orth">    0.01    0.01</time>
   <time name="total">    0.06    0.08</time>
   <energy>
    <i name="e_fr_energy">   -289.77536923 </i>
    <i name="e_wo_entrp">   -289.46830716 </i>
    <i name="e_0_energy">   -289.62183820 </i>
[...]
       <r>    -1.9018    36.6678    80.8422 </r>
       <r>    -1.8330    29.0734    82.8431 </r>
       <r>    -1.7642    13.1706    83.7496 </r>
       <r>    -1.6954     3.2358    83.9723 </r>
       <r>    -1.6265     0.3822    83.9986 </r>
       <r>    -1.5577     0.0198    84.0000 </r>
       <r>    -1.4889     0.0004    84.0000 </r>
       <r>    -1.4201     0.0000    84.0000 </r>
       <r>    -1.3512     0.0000    84.0000 </r>
       <r>    -1.2824     0.0000    84.0000 </r>
       <r>    -1.2136     0.0000    84.0000 </r>
       <r>    -1.1448     0.0000    84.0000 </r>
       <r>    -1.0759     0.0000    84.0000 </r>
       <r>    -1.0071     0.0022    84.0002 </r>
       <r>    -0.9383     0.0707    84.0050 </r>
       <r>    -0.8695     0.9728    84.0720 </r>
       <r>    -0.8006     5.9753    84.4832 </r>
       <r>    -0.7318    18.1458    85.7321 </r>
       <r>    -0.6630    31.5876    87.9061 </r>
       <r>    -0.5942    36.5663    90.4228 </r>
       <r>    -0.5253    35.2020    92.8455 </r>
       <r>    -0.4565    39.9790    95.5971 </r>
       <r>    -0.3877    47.9972    98.9004 </r>
       <r>    -0.3189    48.8514   102.2626 </r>
       <r>    -0.2500    42.3897   105.1801 </r>
       <r>    -0.1812    27.6284   107.0816 </r>
       <r>    -0.1124    10.9096   107.8324 </r>
       <r>    -0.0436     2.2173   107.9851 </r>
       <r>     0.0253     0.2086   107.9994 </r>
       <r>     0.0941     0.0085   108.0000 </r>
       <r>     0.1629     0.0001   108.0000 </r>
       <r>     0.2317     0.0000   108.0000 </r>
       <r>     0.3006     0.0004   108.0000 </r>
       <r>     0.3694     0.0195   108.0014 </r>
       <r>     0.4382     0.3893   108.0282 </r>
       <r>     0.5070     3.3093   108.2559 </r>
       <r>     0.5759    12.3200   109.1038 </r>
       <r>     0.6447    20.6492   110.5250 </r>
       <r>     0.7135    16.9584   111.6922 </r>
       <r>     0.7823    12.8945   112.5796 </r>
       <r>     0.8511    19.1441   113.8972 </r>
       <r>     0.9200    24.9310   115.6131 </r>
       <r>     0.9888    32.8723   117.8755 </r>
       <r>     1.0576    51.0066   121.3860 </r>
       <r>     1.1264    66.6912   125.9760 </r>
       <r>     1.1953    77.1019   131.2825 </r>
       <r>     1.2641    82.3756   136.9520 </r>
       <r>     1.3329    78.8496   142.3788 </r>
       <r>     1.4017    76.7825   147.6633 </r>
       <r>     1.4706    75.4278   152.8546 </r>
       <r>     1.5394    64.2021   157.2733 </r>
       <r>     1.6082    55.0126   161.0595 </r>
       <r>     1.6770    47.2241   164.3097 </r>
       <r>     1.7459    31.7627   166.4958 </r>
       <r>     1.8147    15.8667   167.5878 </r>
       <r>     1.8835     5.1083   167.9394 </r>
       <r>     1.9523     1.0813   168.0138 </r>
       <r>     2.0212     2.5134   168.1868 </r>
       <r>     2.0900    11.5351   168.9807 </r>
       <r>     2.1588    29.4685   171.0088 </r>
       <r>     2.2276    44.1657   174.0485 </r>
       <r>     2.2965    37.3586   176.6197 </r>
       <r>     2.3653    16.3463   177.7447 </r>
       <r>     2.4341     3.9629   178.0175 </r>
       <r>     2.5029     3.8410   178.2818 </r>
       <r>     2.5718     9.2676   178.9197 </r>
       <r>     2.6406    10.1332   179.6171 </r>
       <r>     2.7094     4.6329   179.9359 </r>
       <r>     2.7782     1.1621   180.0159 </r>
       <r>     2.8471     2.9747   180.2206 </r>
       <r>     2.9159    12.8387   181.1043 </r>
       <r>     2.9847    27.6000   183.0038 </r>
       <r>     3.0535    37.0702   185.5552 </r>
       <r>     3.1224    42.8830   188.5066 </r>
       <r>     3.1912    49.0867   191.8849 </r>
       <r>     3.2600    56.1228   195.7476 </r>
       <r>     3.3288    56.9021   199.6638 </r>
       <r>     3.3977    41.9008   202.5476 </r>
       <r>     3.4665    21.6285   204.0362 </r>
       <r>     3.5353    18.1309   205.2841 </r>
       <r>     3.6041    29.3506   207.3041 </r>
       <r>     3.6730    42.9138   210.2576 </r>
       <r>     3.7418    56.8562   214.1708 </r>
       <r>     3.8106    68.7091   218.8996 </r>
       <r>     3.8794    72.8596   223.9142 </r>
       <r>     3.9483    73.1855   228.9511 </r>
       <r>     4.0171    74.4658   234.0762 </r>
       <r>     4.0859    65.7347   238.6004 </r>
       <r>     4.1547    45.5746   241.7370 </r>
       <r>     4.2236    23.7041   243.3685 </r>
       <r>     4.2924     7.7644   243.9028 </r>
       <r>     4.3612     1.3081   243.9929 </r>
       <r>     4.4300     0.1002   243.9998 </r>
       <r>     4.4989     0.0033   244.0000 </r>
       <r>     4.5677     0.0000   244.0000 </r>
       <r>     4.6365     0.0000   244.0000 </r>
       <r>     4.7053     0.0000   244.0000 </r>
       <r>     4.7742     0.0000   244.0000 </r>
       <r>     4.8430     0.0020   244.0001 </r>
       <r>     4.9118     0.0693   244.0049 </r>
       <r>     4.9806     1.0091   244.0744 </r>
       <r>     5.0495     6.4533   244.5185 </r>
       <r>     5.1183    19.1704   245.8379 </r>
       <r>     5.1871    28.2887   247.7849 </r>
       <r>     5.2559    21.7593   249.2824 </r>
       <r>     5.3248     8.6693   249.8791 </r>
       <r>     5.3936     2.4260   250.0461 </r>
       <r>     5.4624     6.1827   250.4716 </r>
       <r>     5.5312    22.7342   252.0363 </r>
       <r>     5.6000    45.1810   255.1458 </r>
       <r>     5.6689    50.8585   258.6461 </r>
       <r>     5.7377    33.2968   260.9378 </r>
       <r>     5.8065    12.5966   261.8047 </r>
       <r>     5.8753     2.8029   261.9976 </r>
       <r>     5.9442     2.4783   262.1682 </r>
       <r>     6.0130     9.8067   262.8432 </r>
       <r>     6.0818    20.9817   264.2872 </r>
       <r>     6.1506    26.4903   266.1104 </r>
       <r>     6.2195    26.1417   267.9096 </r>
       <r>     6.2883    19.7715   269.2704 </r>
       <r>     6.3571     8.6188   269.8635 </r>
       <r>     6.4259     1.8115   269.9882 </r>
       <r>     6.4948     0.2727   270.0070 </r>
       <r>     6.5636     1.1873   270.0887 </r>
       <r>     6.6324     5.4831   270.4661 </r>
       <r>     6.7012    10.5698   271.1935 </r>
       <r>     6.7701     8.6308   271.7876 </r>
       <r>     6.8389     4.3545   272.0873 </r>
       <r>     6.9077     6.7387   272.5510 </r>
       <r>     6.9765    11.6179   273.3506 </r>
       <r>     7.0454    12.1264   274.1852 </r>
       <r>     7.1142    12.2937   275.0314 </r>
       <r>     7.1830     9.8305   275.7079 </r>
       <r>     7.2518     5.0178   276.0533 </r>
       <r>     7.3207     6.8835   276.5270 </r>
       <r>     7.3895    14.8137   277.5466 </r>
       <r>     7.4583    21.8919   279.0533 </r>
       <r>     7.5271    27.0196   280.9129 </r>
       <r>     7.5960    27.7524   282.8229 </r>
       <r>     7.6648    23.9456   284.4710 </r>
       <r>     7.7336    23.0297   286.0560 </r>
       <r>     7.8024    23.9653   287.7054 </r>
       <r>     7.8713    26.8022   289.5501 </r>
       <r>     7.9401    29.1915   291.5592 </r>
       <r>     8.0089    24.9544   293.2766 </r>
       <r>     8.0777    21.0323   294.7242 </r>
       <r>     8.1466    21.4566   296.2009 </r>
       <r>     8.2154    21.6876   297.6936 </r>
       <r>     8.2842    19.5992   299.0425 </r>
       <r>     8.3530    17.6947   300.2603 </r>
       <r>     8.4219    20.4486   301.6677 </r>
       <r>     8.4907    21.4413   303.1434 </r>
       <r>     8.5595    16.9781   304.3119 </r>
       <r>     8.6283    17.0881   305.4879 </r>
       <r>     8.6972    19.0465   306.7988 </r>
       <r>     8.7660    18.2019   308.0516 </r>
       <r>     8.8348    20.1729   309.4400 </r>
       <r>     8.9036    23.5705   311.0622 </r>
       <r>     8.9725    22.7061   312.6249 </r>
       <r>     9.0413    21.3636   314.0953 </r>
       <r>     9.1101    20.8519   315.5304 </r>
       <r>     9.1789    21.9217   317.0391 </r>
       <r>     9.2478    25.3335   318.7827 </r>
       <r>     9.3166    25.3336   320.5263 </r>
       <r>     9.3854    19.8963   321.8956 </r>
       <r>     9.4542    17.8982   323.1275 </r>
       <r>     9.5231    20.4262   324.5333 </r>
       <r>     9.5919    21.1528   325.9891 </r>
       <r>     9.6607    25.1832   327.7224 </r>
       <r>     9.7295    30.5013   329.8216 </r>
       <r>     9.7984    30.4218   331.9154 </r>
       <r>     9.8672    33.6833   334.2336 </r>
       <r>     9.9360    38.5055   336.8837 </r>
       <r>    10.0048    36.8322   339.4187 </r>
       <r>    10.0737    35.3164   341.8493 </r>
       <r>    10.1425    37.6547   344.4409 </r>
       <r>    10.2113    34.9399   346.8456 </r>
       <r>    10.2801    29.1391   348.8511 </r>
       <r>    10.3489    30.0933   350.9223 </r>
       <r>    10.4178    30.8118   353.0429 </r>
       <r>    10.4866    28.4116   354.9983 </r>
       <r>    10.5554    29.6330   357.0378 </r>
       <r>    10.6242    31.5146   359.2068 </r>
       <r>    10.6931    28.2980   361.1544 </r>
       <r>    10.7619    25.6405   362.9191 </r>
       <r>    10.8307    24.7741   364.6241 </r>
       <r>    10.8995    21.1291   366.0783 </r>
       <r>    10.9684    21.1280   367.5325 </r>
       <r>    11.0372    25.0961   369.2597 </r>
       <r>    11.1060    25.3818   371.0066 </r>
       <r>    11.1748    21.6358   372.4957 </r>
       <r>    11.2437    14.6060   373.5009 </r>
       <r>    11.3125     6.1984   373.9275 </r>
       <r>    11.3813     3.3175   374.1559 </r>
       <r>    11.4501     9.2348   374.7914 </r>
       <r>    11.5190    18.2814   376.0496 </r>
       <r>    11.5878    18.0998   377.2954 </r>
       <r>    11.6566    10.7591   378.0358 </r>
       <r>    11.7254     9.5881   378.6957 </r>
       <r>    11.7943    10.9781   379.4513 </r>
       <r>    11.8631     6.4284   379.8937 </r>
       <r>    11.9319     2.9026   380.0935 </r>
       <r>    12.0007     6.1220   380.5149 </r>
       <r>    12.0696    10.7260   381.2531 </r>
       <r>    12.1384     8.0199   381.8050 </r>
       <r>    12.2072     2.4950   381.9768 </r>
       <r>    12.2760     0.3206   381.9988 </r>
       <r>    12.3449     0.0168   382.0000 </r>
       <r>    12.4137     0.0006   382.0000 </r>
       <r>    12.4825     0.0104   382.0007 </r>
       <r>    12.5513     0.2247   382.0162 </r>
       <r>    12.6202     1.9790   382.1524 </r>
       <r>    12.6890     7.1880   382.6471 </r>
       <r>    12.7578    10.8496   383.3938 </r>
       <r>    12.8266     6.8238   383.8635 </r>
       <r>    12.8955     1.7829   383.9862 </r>
       <r>    12.9643     0.1920   383.9994 </r>
       <r>    13.0331     0.0084   384.0000 </r>
       <r>    13.1019     0.0001   384.0000 </r>
       <r>    13.1708     0.0000   384.0000 </r>
       <r>    13.2396     0.0000   384.0000 </r>
       <r>    13.3084     0.0000   384.0000 </r>
       <r>    13.3772     0.0000   384.0000 </r>
       <r>    13.4461     0.0000   384.0000 </r>
       <r>    13.5149     0.0000   384.0000 </r>
       <r>    13.5837     0.0000   384.0000 </r>
       <r>    13.6525     0.0000   384.0000 </r>
       <r>    13.7214     0.0000   384.0000 </r>
      </set>
     </set>
    </array>
   </total>
  </dos>
 </calculation>
 <structure name="finalpos" >
  <crystal>
   <varray name="basis" >
    <v>      10.86180000       0.00000000       0.00000000 </v>
    <v>       0.00000000      10.86180000       0.00000000 </v>
    <v>       0.00000000       0.00000000      10.86180000 </v>
   </varray>
   <i name="volume">   1281.46103541 </i>
   <varray name="rec_basis" >
    <v>       0.09206577       0.00000000       0.00000000 </v>
    <v>       0.00000000       0.09206577       0.00000000 </v>
    <v>       0.00000000       0.00000000       0.09206577 </v>
   </varray>
  </crystal>
  <varray name="positions" >
   <v>       0.99822890       0.99142081       0.01171063 </v>
   <v>       0.49978309       0.00370079       0.99606565 </v>
   <v>       0.00563241       0.49883191       0.99798246 </v>
   <v>       0.49165809       0.49144986       0.00158149 </v>
   <v>       0.99684853       0.00100989       0.49653790 </v>
   <v>       0.50283373       0.00269763       0.50898303 </v>
   <v>       0.00402260       0.50779524       0.50073238 </v>
   <v>       0.51012884       0.50682705       0.49776535 </v>
   <v>       0.37722657       0.10898072       0.38070159 </v>
   <v>       0.86665649       0.13858406       0.38631346 </v>
   <v>       0.37825781       0.63290652       0.38113308 </v>
   <v>       0.87726335       0.62549652       0.37119231 </v>
   <v>       0.36880217       0.13433954       0.87619189 </v>
   <v>       0.88087915       0.11639290       0.87438738 </v>
   <v>       0.37099487       0.61353456       0.86647306 </v>
   <v>       0.88182687       0.62834854       0.88033816 </v>
   <v>       0.99908078       0.26044741       0.25189599 </v>
   <v>       0.49538676       0.25123113       0.25543785 </v>
   <v>       0.98912863       0.75345249       0.24638757 </v>
   <v>       0.50679165       0.75303013       0.25888337 </v>
   <v>       0.99630983       0.24363545       0.75103283 </v>
   <v>       0.50870861       0.24905384       0.74824089 </v>
   <v>       0.99770562       0.74908478       0.74591661 </v>
   <v>       0.48680546       0.75057921       0.75067201 </v>
   <v>       0.36726453       0.37535442       0.13290199 </v>
   <v>       0.87489728       0.36889766       0.11004919 </v>
   <v>       0.38534256       0.86569852       0.12009649 </v>
   <v>       0.85525694       0.87757822       0.12040093 </v>
   <v>       0.38847319       0.37103129       0.61369924 </v>
   <v>       0.87912805       0.38493141       0.62464396 </v>
   <v>       0.37167964       0.88034974       0.63184376 </v>
   <v>       0.88137900       0.87895385       0.61466748 </v>
   <v>       0.25697898       0.98220995       0.24916802 </v>
   <v>       0.74541709       0.01408893       0.24326830 </v>
   <v>       0.25468782       0.51072384       0.25080690 </v>
   <v>       0.75907094       0.50085614       0.24359128 </v>
   <v>       0.24335271       0.00795969       0.75868760 </v>
   <v>       0.75237772       0.98377163       0.75635885 </v>
   <v>       0.24861434       0.48939645       0.73270193 </v>
   <v>       0.75916730       0.50312074       0.74605253 </v>
   <v>       0.12448745       0.11585509       0.13475882 </v>
   <v>       0.61284963       0.12854826       0.12328041 </v>
   <v>       0.12019665       0.63382052       0.13128768 </v>
   <v>       0.61785688       0.62171208       0.12769903 </v>
   <v>       0.12766189       0.12923039       0.61861078 </v>
   <v>       0.63514876       0.11760039       0.63211261 </v>
   <v>       0.12966747       0.63233996       0.62794382 </v>
   <v>       0.62998046       0.62126328       0.63378042 </v>
   <v>       0.23964632       0.24527706       0.00380273 </v>
   <v>       0.74482937       0.24772644       0.99334969 </v>
   <v>       0.25543520       0.74386155       0.00582636 </v>
   <v>       0.74120512       0.73903649       0.99530459 </v>
   <v>       0.24825423       0.25208517       0.49579272 </v>
   <v>       0.74011474       0.26002686       0.50861342 </v>
   <v>       0.24775799       0.76172259       0.49836966 </v>
   <v>       0.75360379       0.74289536       0.49780622 </v>
   <v>       0.12497466       0.38423205       0.37496977 </v>
   <v>       0.63159115       0.37667816       0.36094245 </v>
   <v>       0.12368604       0.87446916       0.37755731 </v>
   <v>       0.63432361       0.88248991       0.37167639 </v>
   <v>       0.11960738       0.37092677       0.87180814 </v>
   <v>       0.62655668       0.36937058       0.87767408 </v>
   <v>       0.13219448       0.86803859       0.87577797 </v>
   <v>       0.62432114       0.87303982       0.87575952 </v>
  </varray>
  <varray name="velocities" >
   <v>      -0.00007552      -0.00010507       0.00007710 </v>
   <v>      -0.00021583       0.00010410       0.00023357 </v>
   <v>      -0.00005563      -0.00012404      -0.00017428 </v>
   <v>      -0.00003224      -0.00031040       0.00013759 </v>
   <v>       0.00012600      -0.00001954      -0.00007655 </v>
   <v>      -0.00014550       0.00054412       0.00021506 </v>
   <v>      -0.00004154       0.00005829       0.00016266 </v>
   <v>      -0.00003677       0.00003110       0.00001454 </v>
   <v>       0.00004475      -0.00026642      -0.00003688 </v>
   <v>       0.00004384       0.00015803       0.00019327 </v>
   <v>      -0.00000465       0.00031598      -0.00001931 </v>
   <v>       0.00013931      -0.00041068      -0.00005934 </v>
   <v>      -0.00016359       0.00008230      -0.00016716 </v>
   <v>       0.00006783       0.00010368      -0.00006177 </v>
   <v>      -0.00007743      -0.00019407      -0.00020336 </v>
   <v>       0.00007560       0.00009663       0.00009518 </v>
   <v>      -0.00002042       0.00032684      -0.00001864 </v>
   <v>       0.00000295       0.00002926      -0.00005484 </v>
   <v>      -0.00012583       0.00003611       0.00012860 </v>
   <v>      -0.00027110       0.00003683      -0.00030028 </v>
   <v>      -0.00022985      -0.00008306       0.00009853 </v>
   <v>      -0.00010854      -0.00013992       0.00002104 </v>
   <v>       0.00016506      -0.00038457       0.00005268 </v>
   <v>      -0.00029794      -0.00010909       0.00005486 </v>
   <v>      -0.00025204       0.00011960       0.00053236 </v>
   <v>       0.00000217      -0.00008218      -0.00047094 </v>
   <v>      -0.00002605      -0.00009840       0.00010675 </v>
   <v>      -0.00035667       0.00019438      -0.00015361 </v>
   <v>       0.00023460      -0.00003070      -0.00005339 </v>
   <v>       0.00007464       0.00035875       0.00002333 </v>
   <v>      -0.00020041       0.00005207       0.00009788 </v>
   <v>       0.00039112       0.00030228      -0.00003630 </v>
   <v>       0.00025586      -0.00039438      -0.00001126 </v>
   <v>      -0.00024913       0.00040580      -0.00034382 </v>
   <v>       0.00034729       0.00004575      -0.00003281 </v>
   <v>       0.00017676      -0.00020406      -0.00020442 </v>
   <v>       0.00002399       0.00025381       0.00030626 </v>
   <v>       0.00004041      -0.00009916       0.00002835 </v>
   <v>      -0.00011462      -0.00018828      -0.00051545 </v>
   <v>       0.00013436       0.00019318      -0.00018639 </v>
   <v>       0.00020664      -0.00027136       0.00028149 </v>
   <v>      -0.00019948       0.00015541      -0.00001469 </v>
   <v>      -0.00002441      -0.00007218      -0.00000896 </v>
   <v>      -0.00007703      -0.00001480       0.00011604 </v>
   <v>      -0.00001909      -0.00000997      -0.00006995 </v>
   <v>       0.00001590       0.00007151       0.00022962 </v>
   <v>       0.00014275      -0.00009981       0.00006075 </v>
   <v>       0.00016258      -0.00038544       0.00045918 </v>
   <v>       0.00002516      -0.00016705      -0.00007718 </v>
   <v>      -0.00003479       0.00007483       0.00002370 </v>
   <v>       0.00031228       0.00016027       0.00016092 </v>
   <v>      -0.00009969      -0.00032846      -0.00012003 </v>
   <v>       0.00004402      -0.00016641      -0.00014888 </v>
   <v>      -0.00014359       0.00021566       0.00023610 </v>
   <v>      -0.00032282       0.00019366      -0.00002368 </v>
   <v>       0.00027209      -0.00027450       0.00004095 </v>
   <v>       0.00005488       0.00021315       0.00011086 </v>
   <v>      -0.00005810      -0.00019860      -0.00029871 </v>
   <v>       0.00034477       0.00026493       0.00008278 </v>
   <v>      -0.00010810       0.00019126      -0.00023685 </v>
   <v>      -0.00018104       0.00002331      -0.00008321 </v>
   <v>       0.00026140      -0.00031738      -0.00002521 </v>
   <v>       0.00020164       0.00014430      -0.00011600 </v>
   <v>      -0.00002123      -0.00000719       0.00002216 </v>
  </varray>
 </structure>
</modeling>
